 &FCI NORB=  10,NELEC=14,MS2=0,
  ORBSYM=1,1,1,1,1,1,1,1,1,1,
  ISYM=1,
 &END
 0.4932037832927973    1    1    1    1
 0.02033326810428077    2    1    2    1
 0.4525372470842357    2    2    1    1
 0.4932037832927973    2    2    2    2
 0.02038266652831322    3    1    3    1
 0.2662009804584393    3    2    3    2
 0.4552350479710693    3    3    1    1
 0.4967207719995332    3    3    2    2
 0.500565917724287    3    3    3    3
 0.2254356474018126    4    1    3    2
 0.2662009804584393    4    1    4    1
 0.02038266652831322    4    2    3    1
 0.02038266652831322    4    2    4    2
 0.02074286201423184    4    3    2    1
 0.02119827266162027    4    3    4    3
 0.4967207719995332    4    4    1    1
 0.4552350479710693    4    4    2    2
 0.4581693724010464    4    4    3    3
 0.500565917724287    4    4    4    4
 0.02138989508215164    5    1    5    1
 0.02138989508215164    5    2    5    2
 0.0205126237240747    5    3    5    3
 0.0205126237240747    5    4    5    4
 0.4541260574298198    5    5    1    1
 0.4541260574298198    5    5    2    2
 0.4562316580797476    5    5    3    3
 0.4562316580797476    5    5    4    4
 0.4996352762945241    5    5    5    5
 0.01853162816663924    6    1    5    4
 0.02204146869351901    6    1    6    1
 0.01853162816663924    6    2    5    3
 0.02204146869351901    6    2    6    2
 0.01991796254570441    6    3    5    2
 0.0234342172386306    6    3    6    3
 0.01991796254570441    6    4    5    1
 0.0234342172386306    6    4    6    4
 0.2144228037927227    6    5    3    2
 0.2144228037927227    6    5    4    1
 0.2424201325252252    6    5    6    5
 0.4730373350300728    6    6    1    1
 0.4730373350300728    6    6    2    2
 0.4749992638918945    6    6    3    3
 0.4749992638918945    6    6    4    4
 0.5122842729321109    6    6    5    5
 0.5400617965433302    6    6    6    6
 -0.004780813994344652    7    1    5    1
 0.01368544626445666    7    1    6    4
 0.07625442262144559    7    1    7    1
 -0.004780813994344652    7    2    5    2
 0.01368544626445666    7    2    6    3
 0.07625442262144559    7    2    7    2
 -0.00872711644607267    7    3    5    3
 0.01060514694448741    7    3    6    2
 0.06844947855531487    7    3    7    3
 -0.00872711644607267    7    4    5    4
 0.01060514694448741    7    4    6    1
 0.06844947855531487    7    4    7    4
 0.01718325713036412    7    5    1    1
 0.01718325713036412    7    5    2    2
 0.01431283506331908    7    5    3    3
 0.01431283506331908    7    5    4    4
 0.01175217665498377    7    5    5    5
 0.03907672731495061    7    5    6    6
 0.08204544711037851    7    5    7    5
 0.03077970136990685    7    6    3    2
 0.03077970136990685    7    6    4    1
 0.02822458586214815    7    6    6    5
 0.07207223928660232    7    6    7    6
 0.4653185208645985    7    7    1    1
 0.4653185208645985    7    7    2    2
 0.4671615493912048    7    7    3    3
 0.4671615493912048    7    7    4    4
 0.4675276059020158    7    7    5    5
 0.4901797648948097    7    7    6    6
 0.03596680282044494    7    7    7    5
 0.4712532804632791    7    7    7    7
 -0.01226223562253747    8    1    5    4
 0.007367898203614738    8    1    6    1
 0.0697842047217222    8    1    7    4
 0.07173031871323805    8    1    8    1
 -0.01226223562253747    8    2    5    3
 0.007367898203614738    8    2    6    2
 0.0697842047217222    8    2    7    3
 0.07173031871323805    8    2    8    2
 -0.00973459158294541    8    3    5    2
 0.00935144564937385    8    3    6    3
 0.07737219646230459    8    3    7    2
 0.07978737326613385    8    3    8    3
 -0.00973459158294541    8    4    5    1
 0.00935144564937385    8    4    6    4
 0.07737219646230459    8    4    7    1
 0.07978737326613385    8    4    8    4
 -0.06826364606423953    8    5    3    2
 -0.06826364606423953    8    5    4    1
 -0.07181067811006782    8    5    6    5
 0.05703953362264162    8    5    7    6
 0.08545515874569837    8    5    8    5
 0.02540995813874109    8    6    1    1
 0.02540995813874109    8    6    2    2
 0.0232848267133504    8    6    3    3
 0.0232848267133504    8    6    4    4
 0.007381517051588354    8    6    5    5
 0.03699059996143689    8    6    6    6
 0.07797916865723512    8    6    7    5
 0.03865446745674606    8    6    7    7
 0.07811721677641144    8    6    8    6
 0.2263021785424788    8    7    3    2
 0.2263021785424788    8    7    4    1
 0.2146769504608842    8    7    6    5
 0.02729325625768533    8    7    7    6
 -0.06846119253705822    8    7    8    5
 0.2151542376975881    8    7    8    7
 0.462156916292182    8    8    1    1
 0.462156916292182    8    8    2    2
 0.4654850643506174    8    8    3    3
 0.4654850643506174    8    8    4    4
 0.4653469990898773    8    8    5    5
 0.4779118885569517    8    8    6    6
 0.0007254922353684118    8    8    7    5
 0.4592906918041694    8    8    7    7
 0.006192659666702766    8    8    8    6
 0.4629309490182931    8    8    8    8
 -0.002061400252965169    9    1    5    4
 0.002184628530646252    9    1    6    1
 0.014704573995639    9    1    7    4
 0.01504085497458209    9    1    8    1
 0.01084584035054613    9    1    9    1
 -0.002061400252965169    9    2    5    3
 0.002184628530646252    9    2    6    2
 0.014704573995639    9    2    7    3
 0.01504085497458209    9    2    8    2
 0.01084584035054613    9    2    9    2
 -0.001743534501755974    9    3    5    2
 0.002456954734145766    9    3    6    3
 0.01559886815712274    9    3    7    2
 0.01623140370188005    9    3    8    3
 0.01135558985355672    9    3    9    3
 -0.001743534501755974    9    4    5    1
 0.002456954734145766    9    4    6    4
 0.01559886815712274    9    4    7    1
 0.01623140370188005    9    4    8    4
 0.01135558985355672    9    4    9    4
 -0.001093877144498154    9    5    3    2
 -0.001093877144498154    9    5    4    1
 -0.001222148419520579    9    5    6    5
 0.01428311583290096    9    5    7    6
 0.0141145873821529    9    5    8    5
 -0.0009225311458963168    9    5    8    7
 0.01057692009075972    9    5    9    5
 0.001399313061658856    9    6    1    1
 0.001399313061658856    9    6    2    2
 0.00105004900711013    9    6    3    3
 0.00105004900711013    9    6    4    4
 -0.001746914367106108    9    6    5    5
 0.005556394477532542    9    6    6    6
 0.01643222944651466    9    6    7    5
 0.003880315614412655    9    6    7    7
 0.01677935691002892    9    6    8    6
 -0.00267731964711976    9    6    8    8
 0.01310142735490135    9    6    9    6
 -0.005897680363624334    9    7    3    2
 -0.005897680363624334    9    7    4    1
 -0.005747420708780268    9    7    6    5
 -0.0006597259771605001    9    7    7    6
 0.002845531507735903    9    7    8    5
 -0.009044447527692713    9    7    8    7
 -0.003125899895875692    9    7    9    5
 0.03030381296716417    9    7    9    7
 -0.006020634635288461    9    8    1    1
 -0.006020634635288461    9    8    2    2
 -0.006216920402413645    9    8    3    3
 -0.006216920402413645    9    8    4    4
 -0.005598988571347503    9    8    5    5
 -0.00734359241756837    9    8    6    6
 -0.000637835034717989    9    8    7    5
 -0.009394019329041029    9    8    7    7
 -0.002327180364143137    9    8    8    6
 -0.009558728468794306    9    8    8    8
 0.004034359844815974    9    8    9    6
 0.03267238462644238    9    8    9    8
 0.5972791971243057    9    9    1    1
 0.5972791971243057    9    9    2    2
 0.6046634875758715    9    9    3    3
 0.6046634875758715    9    9    4    4
 0.5940276305911826    9    9    5    5
 0.6347338396777655    9    9    6    6
 0.012165729554253    9    9    7    5
 0.5990326200657798    9    9    7    7
 0.03190427616810815    9    9    8    6
 0.6045841686144966    9    9    8    8
 -0.02967255678581509    9    9    9    6
 -0.2072738130168562    9    9    9    8
 2.18780449286382    9    9    9    9
 -0.001708948165403018   10    1    5    1
 0.002392407691904452   10    1    6    4
 0.01525085867111253   10    1    7    1
 0.01586731456940172   10    1    8    4
 0.01111692470729352   10    1    9    4
 0.01088336426207013   10    1   10    1
 -0.001708948165403018   10    2    5    2
 0.002392407691904452   10    2    6    3
 0.01525085867111253   10    2    7    2
 0.01586731456940172   10    2    8    3
 0.01111692470729352   10    2    9    3
 0.01088336426207013   10    2   10    2
 -0.002126723392777794   10    3    5    3
 0.002175292206174464   10    3    6    2
 0.01490029369874406   10    3    7    3
 0.0152476732453269   10    3    8    2
 0.01104304193852685   10    3    9    2
 0.01124400889370623   10    3   10    3
 -0.002126723392777794   10    4    5    4
 0.002175292206174464   10    4    6    1
 0.01490029369874406   10    4    7    4
 0.0152476732453269   10    4    8    1
 0.01104304193852685   10    4    9    1
 0.01124400889370623   10    4   10    4
 0.00263117581538122   10    5    1    1
 0.00263117581538122   10    5    2    2
 0.002354307927419622   10    5    3    3
 0.002354307927419622   10    5    4    4
 -0.0002201635280209339   10    5    5    5
 0.006718103056350278   10    5    6    6
 0.01495672791085959   10    5    7    5
 0.005813423335888354   10    5    7    7
 0.01565677104771482   10    5    8    6
 -7.103454710616573e-05   10    5    8    8
 0.01057956496630479   10    5    9    6
 -0.004979936438165263   10    5    9    8
 0.0274161430090379   10    5    9    9
 0.01070380899859251   10    5   10    5
 -0.00308038487209788   10    6    3    2
 -0.00308038487209788   10    6    4    1
 -0.003278598393697829   10    6    6    5
 0.0149836945474552   10    6    7    6
 0.01594835416788409   10    6    8    5
 -0.00388225562303807   10    6    8    7
 0.01042588927254854   10    6    9    5
 0.005743973070262139   10    6    9    7
 0.01292910026661586   10    6   10    6
 -0.005639262871395204   10    7    1    1
 -0.005639262871395204   10    7    2    2
 -0.005888996023312412   10    7    3    3
 -0.005888996023312412   10    7    4    4
 -0.005605350927923947   10    7    5    5
 -0.006196858921442372   10    7    6    6
 0.001919790915681485   10    7    7    5
 -0.008368335433676363   10    7    7    7
 0.0003324812670037565   10    7    8    6
 -0.009548640303512865   10    7    8    8
 0.005726516362731644   10    7    9    6
 0.03133451938865322   10    7    9    8
 -0.1998178534358876   10    7    9    9
 -0.003125155612649841   10    7   10    5
 0.03032604683591966   10    7   10    7
 -0.00590379715122987   10    8    3    2
 -0.00590379715122987   10    8    4    1
 -0.005727774405683431   10    8    6    5
 -0.00323810917747685   10    8    7    6
 0.0004006383055771703   10    8    8    5
 -0.009132134628444007   10    8    8    7
 -0.004993873650225572   10    8    9    5
 0.031331089238401   10    8    9    7
 0.004045967176940383   10    8   10    6
 0.03269628315290504   10    8   10    8
 0.3659414950399861   10    9    3    2
 0.3659414950399861   10    9    4    1
 0.3519708773962908   10    9    6    5
 0.06009907158984291   10    9    7    6
 -0.09882901655541089   10    9    8    5
 0.3554272932127712   10    9    8    7
 0.02373189453569623   10    9    9    5
 -0.1998504996541081   10    9    9    7
 -0.03456653137752838   10    9   10    6
 -0.2072026065766958   10    9   10    8
 1.947740131349397   10    9   10    9
 0.5972801165043703   10   10    1    1
 0.5972801165043703   10   10    2    2
 0.6046656607550067   10   10    3    3
 0.6046656607550067   10   10    4    4
 0.5940414708331375   10   10    5    5
 0.6347238407103003   10   10    6    6
 0.01211013337462323   10   10    7    5
 0.5990331787232418   10   10    7    7
 0.03184941625284709   10   10    8    6
 0.6046071763948981   10   10    8    8
 -0.02972874431395477   10   10    9    6
 -0.2073496723341469   10   10    9    8
 2.18828516733742   10   10    9    9
 0.02738615598918053   10   10   10    5
 -0.1998974798303402   10   10   10    7
 2.188766192846788   10   10   10   10
 -6.548518043446282    1    1  0  0
 -6.548518043446282    2    2  0  0
 -6.562327979348411    3    3  0  0
 -6.562327979348411    4    4  0  0
 -6.601884613160672    5    5  0  0
 -6.766642447400285    6    6  0  0
 -0.2507285943598182    7    5  0  0
 -7.008639758725859    7    7  0  0
 -0.3491131445026267    8    6  0  0
 -6.908670941972176    8    8  0  0
 0.05021430088943856    9    6  0  0
 0.5135496837228235    9    8  0  0
 -25.86580499500525    9    9  0  0
 -0.08137333189238249   10    5  0  0
 0.4972423670547479   10    7  0  0
 -25.86644392925927   10   10  0  0
 11.78621969776364  0  0  0  0
