 &FCI NORB=   4,NELEC= 4,MS2=0,
  ORBSYM=1,1,1,1,
  ISYM=1,
 &END
 -1.270323165412941    1    1    1    1
 0.3147639108505786    2    1    2    1
 -1.249142755468343    2    2    1    1
 -1.069868241954184    2    2    2    2
 -0.07530350756153843    3    1    1    1
 0.1074374091781855    3    1    2    2
 0.215664126989792    3    1    3    1
 0.1960020337022404    3    2    2    1
 0.2745656798641306    3    2    3    2
 -1.082105553357676    3    3    1    1
 -0.9346789398799583    3    3    2    2
 0.07410189893363184    3    3    3    1
 -0.7484826630990218    3    3    3    3
 0.08616814464038851    4    1    2    1
 -0.1059209344742386    4    1    3    2
 0.1941391036987031    4    1    4    1
 0.0934334573782678    4    2    1    1
 -0.06694895359412073    4    2    2    2
 -0.1970258513731263    4    2    3    1
 -0.06943297373890162    4    2    3    3
 0.2092905574189251    4    2    4    2
 -0.301266758681156    4    3    2    1
 -0.1987330805868543    4    3    3    2
 -0.08193897925890964    4    3    4    1
 0.3249287853835192    4    3    4    3
 -0.7760106952497151    4    4    1    1
 -0.7501386332963214    4    4    2    2
 -0.08398767406515763    4    4    3    1
 -0.5706792046443996    4    4    3    3
 0.1120142564970523    4    4    4    2
 -0.2168456565589143    4    4    4    4
 -0.2728780119369335    1    1  0  0
 -0.1356240469102749    2    2  0  0
 0.05643072290771209    3    1  0  0
 0.03333796456920998    3    3  0  0
 -0.03374981652176715    4    2  0  0
 0.2557563949711166    4    4  0  0
 2.29310124732  0  0  0  0
