 &FCI NORB=   4,NELEC= 4,MS2=0,
  ORBSYM=1,1,1,1,
  ISYM=1,
 &END
 1    1    1    1    1
 -0.25    2    1    1    1
 -0.125    2    2    1    1
 -0.25    2    2    2    1
 1    2    2    2    2
 -0.25    3    2    1    1
 -0.25    3    2    2    2
 -0.125    3    3    1    1
 -0.25    3    3    2    1
 -0.125    3    3    2    2
 -0.25    3    3    3    2
 1    3    3    3    3
 -0.25    4    3    1    1
 -0.25    4    3    2    2
 -0.25    4    3    3    3
 -0.125    4    4    1    1
 -0.25    4    4    2    1
 -0.125    4    4    2    2
 -0.25    4    4    3    2
 -0.125    4    4    3    3
 -0.25    4    4    4    3
 1    4    4    4    4
 0.5    1    1  0  0
 -0.25    2    1  0  0
 0.5    2    2  0  0
 -0.25    3    2  0  0
 0.5    3    3  0  0
 -0.25    4    3  0  0
 0.5    4    4  0  0
 21.6080694459  0  0  0  0
