 &FCI NORB=  10,NELEC=14,MS2=0,
  ORBSYM=1,1,1,1,1,1,1,1,1,1,
  ISYM=1,
 &END
 -0.5032294821001539    1    1    1    1
 0.02267241183912428    2    1    2    1
 -0.550861607492969    2    2    1    1
 -0.5099903028186342    2    2    2    2
 0.02267241183912429    3    1    3    1
 0.02119827266162037    3    2    3    2
 -0.5508616074929693    3    3    1    1
 -0.5523868481418751    3    3    2    2
 -0.5099903028186347    3    3    3    3
 0.02145325828038404    4    1    4    1
 0.1194593882726567    4    2    4    2
 0.1205764317655515    4    3    4    2
 0.1671242587140958    4    3    4    3
 -0.5516900598896718    4    4    1    1
 -0.5372616607813111    4    4    2    2
 0.02034917778333005    4    4    3    2
 -0.5292174608623904    4    4    3    3
 -0.5146749377785853    4    4    4    4
 0.02145325828038402    5    1    5    1
 0.1205764317655514    5    2    4    2
 0.1263589256574693    5    2    4    3
 0.1671242587140957    5    2    5    2
 -0.07869405521603001    5    3    4    2
 -0.1205764317655515    5    3    4    3
 -0.1205764317655515    5    3    5    2
 0.1194593882726568    5    3    5    3
 0.02034917778333004    5    4    2    2
 0.004022099959460565    5    4    3    2
 -0.02034917778332996    5    4    3    3
 0.02033326810428078    5    4    5    4
 -0.551690059889672    5    5    1    1
 -0.5292174608623902    5    5    2    2
 -0.02034917778332997    5    5    3    2
 -0.5372616607813113    5    5    3    3
 -0.5553414739871469    5    5    4    4
 -0.5146749377785855    5    5    5    5
 0.1386173634852954    6    1    4    2
 0.1686974172695579    6    1    4    3
 0.1686974172695578    6    1    5    2
 -0.1386173634852954    6    1    5    3
 0.2501420250974663    6    1    6    1
 0.01249284053358114    6    2    4    1
 0.01520379467179196    6    2    5    1
 0.01932664009658063    6    2    6    2
 0.01520379467179197    6    3    4    1
 -0.01249284053358115    6    3    5    1
 0.01932664009658064    6    3    6    3
 0.01344916947024862    6    4    2    1
 0.01636764758040006    6    4    3    1
 0.02097714002850343    6    4    6    4
 0.01636764758040005    6    5    2    1
 -0.01344916947024862    6    5    3    1
 0.02097714002850341    6    5    6    5
 -0.5125262800059271    6    6    1    1
 -0.5575369240053001    6    6    2    2
 -0.5575369240053003    6    6    3    3
 -0.5577809393688445    6    6    4    4
 -0.5577809393688444    6    6    5    5
 -0.5162163136135101    6    6    6    6
 0.006790473357616933    7    1    1    1
 -0.001791546958905781    7    1    2    2
 -0.001791546958905779    7    1    3    3
 0.000394123370687307    7    1    4    4
 0.0003941233706872851    7    1    5    5
 -0.001162205902367478    7    1    6    6
 0.08096890878611487    7    1    7    1
 0.006654894241149037    7    2    2    1
 -0.001040081630018106    7    2    6    4
 -0.001265779988321443    7    2    6    5
 0.08105672437452384    7    2    7    2
 0.006654894241149042    7    3    3    1
 -0.001265779988321443    7    3    6    4
 0.001040081630018106    7    3    6    5
 0.08105672437452388    7    3    7    3
 0.004994095753084313    7    4    4    1
 -0.003128463538003271    7    4    6    2
 -0.0038073420646117    7    4    6    3
 0.07278938528974044    7    4    7    4
 0.004994095753084309    7    5    5    1
 -0.003807342064611697    7    5    6    2
 0.00312846353800327    7    5    6    3
 0.07278938528974038    7    5    7    5
 -0.02352566642729412    7    6    4    2
 -0.02863075062202197    7    6    4    3
 -0.02863075062202196    7    6    5    2
 0.02352566642729414    7    6    5    3
 -0.03797832726147986    7    6    6    1
 0.07053671671566777    7    6    7    6
 -0.57626843754713    7    7    1    1
 -0.5756859812595866    7    7    2    2
 -0.5756859812595868    7    7    3    3
 -0.5774643442325154    7    7    4    4
 -0.5774643442325156    7    7    5    5
 -0.581671824524565    7    7    6    6
 -0.011001917602759    7    7    7    1
 -0.6115630687584093    7    7    7    7
 -1.820389960487938e-05    8    1    4    2
 -2.215415710098558e-05    8    1    4    3
 -2.215415710098517e-05    8    1    5    2
 1.820389960487953e-05    8    1    5    3
 0.001445203834538333    8    1    6    1
 -0.06693975086837022    8    1    7    6
 0.06928174718318712    8    1    8    1
 -0.003514726083537055    8    2    4    1
 -0.004277423821912089    8    2    5    1
 0.004243567387528056    8    2    6    2
 -0.04541982423521421    8    2    7    4
 -0.05527595424314009    8    2    7    5
 0.07033917595878984    8    2    8    2
 -0.00427742382191209    8    3    4    1
 0.003514726083537057    8    3    5    1
 0.004243567387528059    8    3    6    3
 -0.05527595424314011    8    3    7    4
 0.04541982423521421    8    3    7    5
 0.07033917595878987    8    3    8    3
 -0.005160884897608405    8    4    2    1
 -0.006280800118841975    8    4    3    1
 -0.0002749624025245649    8    4    6    4
 -0.0501713926964984    8    4    7    2
 -0.06105861600530211    8    4    7    3
 0.07738233640818955    8    4    8    4
 -0.006280800118841971    8    5    2    1
 0.005160884897608404    8    5    3    1
 -0.000274962402524564    8    5    6    5
 -0.06105861600530208    8    5    7    2
 0.05017139269649839    8    5    7    3
 0.07738233640818951    8    5    8    5
 -0.008915119622258414    8    6    1    1
 0.004862593424021854    8    6    2    2
 0.004862593424021856    8    6    3    3
 0.002009339732951026    8    6    4    4
 0.002009339732951042    8    6    5    5
 -0.003992879461306722    8    6    6    6
 -0.08151456944456377    8    6    7    1
 0.01215231919804362    8    6    7    7
 0.08467151108898889    8    6    8    6
 -0.1470629906283381    8    7    4    2
 -0.1789757507368086    8    7    4    3
 -0.1789757507368085    8    7    5    2
 0.1470629906283381    8    7    5    3
 -0.2237892691152268    8    7    6    1
 0.04188710348196462    8    7    7    6
 -0.005826378104038698    8    7    8    1
 0.2256872705371987    8    7    8    7
 -0.5759701791041149    8    8    1    1
 -0.5793195024860796    8    8    2    2
 -0.5793195024860799    8    8    3    3
 -0.5803382459597854    8    8    4    4
 -0.5803382459597854    8    8    5    5
 -0.580229266688599    8    8    6    6
 -0.000167422952460172    8    8    7    1
 -0.6152994701922084    8    8    7    7
 -0.0005470965326476589    8    8    8    6
 -0.6163353534800028    8    8    8    8
 -0.00189304339117046    9    1    4    2
 -0.002303834980265939    9    1    4    3
 -0.002303834980265938    9    1    5    2
 0.001893043391170461    9    1    5    3
 -0.002518821096685236    9    1    6    1
 0.01400271302027504    9    1    7    6
 -0.01415106200045359    9    1    8    1
 0.004067892848145082    9    1    8    7
 0.01185979997911224    9    1    9    1
 0.0008210015574369779    9    2    4    1
 0.0009991594042155828    9    2    5    1
 -0.0006653005513581663    9    2    6    2
 0.008733126527695777    9    2    7    4
 0.01062822039655099    9    2    7    5
 -0.01357972061051778    9    2    8    2
 0.01054029511772542    9    2    9    2
 0.0009991594042155834    9    3    4    1
 -0.0008210015574369776    9    3    5    1
 -0.0006653005513581666    9    3    6    3
 0.010628220396551    9    3    7    4
 -0.008733126527695784    9    3    7    5
 -0.01357972061051779    9    3    8    3
 0.01054029511772543    9    3    9    3
 0.000898555501061609    9    4    2    1
 0.001093542601670728    9    4    3    1
 -0.0003303914910481577    9    4    6    4
 0.009014479964070895    9    4    7    2
 0.01097062770298798    9    4    7    3
 -0.01370428090825205    9    4    8    4
 0.0101682055289744    9    4    9    4
 0.001093542601670727    9    5    2    1
 -0.0008985555010616091    9    5    3    1
 -0.0003303914910481573    9    5    6    5
 0.01097062770298798    9    5    7    2
 -0.009014479964070897    9    5    7    3
 -0.01370428090825204    9    5    8    5
 0.01016820552897439    9    5    9    5
 0.0001613948450007296    9    6    1    1
 -0.002287833678035524    9    6    2    2
 -0.002287833678035525    9    6    3    3
 -0.002064872439185864    9    6    4    4
 -0.002064872439185867    9    6    5    5
 -0.002297439469783425    9    6    6    6
 0.01406858488482232    9    6    7    1
 -0.003413750742133916    9    6    7    7
 -0.01349747268425117    9    6    8    6
 -0.002065058513965965    9    6    8    8
 0.009603585975790935    9    6    9    6
 -0.003701498767763973    9    7    4    2
 -0.004504726294368407    9    7    4    3
 -0.004504726294368405    9    7    5    2
 0.003701498767763973    9    7    5    3
 -0.005796138889964469    9    7    6    1
 0.0001970534562601873    9    7    7    6
 0.001207643472092775    9    7    8    1
 0.008003910465195109    9    7    8    7
 0.002804842295137018    9    7    9    1
 0.02709598218979595    9    7    9    7
 -0.008676201787216082    9    8    1    1
 -0.009034528983740074    9    8    2    2
 -0.009034528983740081    9    8    3    3
 -0.009131548854367073    9    8    4    4
 -0.009131548854367079    9    8    5    5
 -0.009283995929489105    9    8    6    6
 0.0007945269870269092    9    8    7    1
 -0.006495155750727163    9    8    7    7
 -4.178135306120108e-05    9    8    8    6
 -0.007253522850042906    9    8    8    8
 0.001284269868948039    9    8    9    6
 0.02206296196650353    9    8    9    8
 -1.887958201820663    9    9    1    1
 -1.901867520387949    9    9    2    2
 -1.90186752038795    9    9    3    3
 -1.90792268577056    9    9    4    4
 -1.907922685770561    9    9    5    5
 -1.916158798146342    9    9    6    6
 0.007380567015778204    9    9    7    1
 -1.937688349684896    9    9    7    7
 0.007562766953464036    9    9    8    6
 -1.951643892202082    9    9    8    8
 0.006420313986590073    9    9    9    6
 0.1516371916145908    9    9    9    8
 -1.796216064056495    9    9    9    9
 -0.007288133948690353   10    1    1    1
 -0.004494893782649856   10    1    2    2
 -0.004494893782649859   10    1    3    3
 -0.004799098873570975   10    1    4    4
 -0.004799098873570975   10    1    5    5
 -0.004707528016989465   10    1    6    6
 -0.01608358359750302   10    1    7    1
 -0.002796389171400376   10    1    7    7
 0.0156593635148052   10    1    8    6
 -0.004563907301031776   10    1    8    8
 -0.01048566790620397   10    1    9    6
 0.002694864686294189   10    1    9    8
 0.0169325919369571   10    1    9    9
 0.01222499503028965   10    1   10    1
 -0.001573835704904842   10    2    2    1
 0.0001787310559892692   10    2    6    4
 0.000217515805907309   10    2    6    5
 -0.01520832188333719   10    2    7    2
 0.009327487780307859   10    2    8    4
 0.0113515584093346   10    2    8    5
 -0.006666140274877375   10    2    9    4
 -0.008112696845858613   10    2    9    5
 0.010848044144673   10    2   10    2
 -0.001573835704904843   10    3    3    1
 0.000217515805907309   10    3    6    4
 -0.0001787310559892686   10    3    6    5
 -0.01520832188333719   10    3    7    3
 0.01135155840933461   10    3    8    4
 -0.009327487780307861   10    3    8    5
 -0.008112696845858618   10    3    9    4
 0.006666140274877373   10    3    9    5
 0.010848044144673   10    3   10    3
 -0.001385240442878376   10    4    4    1
 0.0003977873950171755   10    4    6    2
 0.0004841075062641882   10    4    6    3
 -0.01413102863356809   10    4    7    4
 0.008855904034176344   10    4    8    2
 0.01077764069802906   10    4    8    3
 -0.006637478790038562   10    4    9    2
 -0.008077815801046863   10    4    9    3
 0.01037498418717863   10    4   10    4
 -0.001385240442878375   10    5    5    1
 0.0004841075062641879   10    5    6    2
 -0.0003977873950171756   10    5    6    3
 -0.01413102863356808   10    5    7    5
 0.01077764069802906   10    5    8    2
 -0.008855904034176345   10    5    8    3
 -0.008077815801046859   10    5    9    2
 0.006637478790038564   10    5    9    3
 0.01037498418717863   10    5   10    5
 0.0004482595618031397   10    6    4    2
 0.0005455321645227747   10    6    4    3
 0.0005455321645227744   10    6    5    2
 -0.0004482595618031398   10    6    5    3
 0.0001777249803200921   10    6    6    1
 -0.01304425187570879   10    6    7    6
 0.01359219893511134   10    6    8    1
 -0.001422855146655531   10    6    8    7
 -0.01039066022874989   10    6    9    1
 0.001638834179880528   10    6    9    7
 0.009749953977153497   10    6   10    6
 -0.02100433841874565   10    7    1    1
 -0.02154300466000589   10    7    2    2
 -0.02154300466000589   10    7    3    3
 -0.02168696605063474   10    7    4    4
 -0.02168696605063476   10    7    5    5
 -0.02188786274537264   10    7    6    6
 0.001050191281969973   10    7    7    1
 -0.01889780777186088   10    7    7    7
 -0.0001183305674932849   10    7    8    6
 -0.01978975154505621   10    7    8    8
 0.00160186025084166   10    7    9    6
 0.02437616643269324   10    7    9    8
 0.1588082175609112   10    7    9    9
 0.002785058484294914   10    7   10    1
 0.02696277530183861   10    7   10    7
 -0.0003074168511190077   10    8    4    2
 -0.0003741264983330782   10    8    4    3
 -0.0003741264983330784   10    8    5    2
 0.0003074168511190096   10    8    5    3
 -0.0005549735241586881   10    8    6    1
 -7.80188324768672e-05   10    8    7    6
 0.0005899283039996313   10    8    8    1
 0.002739308167463869   10    8    8    7
 0.002724333118774351   10    8    9    1
 0.02434938224492244   10    8    9    7
 0.001257294277439361   10    8   10    6
 0.02199730342753703   10    8   10    8
 -0.2324323401726323   10    9    4    2
 -0.282870302039772   10    9    4    3
 -0.2828703020397719   10    9    5    2
 0.2324323401726324   10    9    5    3
 -0.3588745375557801   10    9    6    1
 0.04913992869128169   10    9    7    6
 0.00991286919795714   10    9    8    1
 0.3563631540614274   10    9    8    7
 0.02529506081311344   10    9    9    1
 0.1871491169408081   10    9    9    7
 0.008047606926686332   10    9   10    6
 0.1598911044226786   10    9   10    8
 1.962997216974834   10    9   10    9
 -1.887669181200278   10   10    1    1
 -1.901587272565212   10   10    2    2
 -1.901587272565213   10   10    3    3
 -1.907638575360095   10   10    4    4
 -1.907638575360096   10   10    5    5
 -1.915872394607361   10   10    6    6
 0.007460299564559411   10   10    7    1
 -1.937463526686429   10   10    7    7
 0.007471037880220067   10   10    8    6
 -1.9513942794772   10   10    8    8
 0.006458502792940346   10   10    9    6
 0.1512167030477983   10   10    9    8
 -1.799031348600544   10   10    9    9
 0.01681110222485362   10   10   10    1
 0.1583445598375415   10   10   10    7
 -1.80183820408051   10   10   10   10
 0.004749667107516439    1    1  0  0
 0.006287454180577774    2    2  0  0
 0.006287454180577688    3    3  0  0
 0.002693643517709236    4    4  0  0
 0.002693643517709042    5    5  0  0
 -0.00545248025413724    6    6  0  0
 -0.009564134421380995    7    1  0  0
 0.06369040205036755    7    7  0  0
 0.02463555271947148    8    6  0  0
 0.05140423272868563    8    8  0  0
 0.003907774182597043    9    6  0  0
 0.1150310729650886    9    8  0  0
 0.1394102421614704    9    9  0  0
 0.01535886067999998   10    1  0  0
 0.1207643203334651   10    7  0  0
 0.1372700486474231   10   10  0  0
 11.78621969776364  0  0  0  0
