 &FCI NORB=  10,NELEC=14,MS2=0,
  ORBSYM=1,1,1,1,1,1,1,1,1,1,
  ISYM=1,
 &END
 -0.6070610585390617    1    1    1    1
 0.2120318448912392    2    1    2    1
 -0.6196237671246921    2    2    1    1
 -0.610455015118772    2    2    2    2
 -0.02624865116904659    3    1    1    1
 -0.006138537304843567    3    1    2    2
 0.07047888105210361    3    1    3    1
 0.0209302765400098    3    2    2    1
 0.07485271151944796    3    2    3    2
 -0.5875336092463669    3    3    1    1
 -0.5793911774577978    3    3    2    2
 0.01160482801074982    3    3    3    1
 -0.5110839716494121    3    3    3    3
 -2.690651853383457e-08    4    1    1    1
 -0.00852010140884508    4    1    2    1
 -2.604368339104456e-08    4    1    2    2
 -0.003514839404001848    4    1    3    2
 -2.799989100891451e-08    4    1    3    3
 0.02988020556505031    4    1    4    1
 0.03949158129188247    4    2    1    1
 0.03925343229514577    4    2    2    2
 -0.0004922880020026277    4    2    3    1
 0.04271808627164024    4    2    3    3
 -4.223134611016573e-08    4    2    4    1
 0.0326723846264298    4    2    4    2
 -0.003514839404001834    4    3    2    1
 0.01451650885573055    4    3    3    2
 0.002839559472771614    4    3    4    1
 0.01126944775266029    4    3    4    3
 -1.94322557182089    4    4    1    1
 -4.788711689331208e-07    4    4    2    1
 -1.932044957013802    4    4    2    2
 -0.005464378497146264    4    4    3    1
 -7.144210594663988e-08    4    4    3    2
 -1.907411486650011    4    4    3    3
 3.738743349101465e-07    4    4    4    1
 -0.1584616522530251    4    4    4    2
 5.575128518949528e-08    4    4    4    3
 -1.812067794251939    4    4    4    4
 -0.0391183078489727    5    1    1    1
 -0.0372353928765739    5    1    2    2
 0.00254615770425486    5    1    3    1
 -0.04038645319552218    5    1    3    3
 -0.03099156037849029    5    1    4    2
 0.1509513073507502    5    1    4    4
 0.02990277230380119    5    1    5    1
 -2.758214314885851e-08    5    2    1    1
 0.009032182629371761    5    2    2    1
 -2.696390444248072e-08    5    2    2    2
 0.001347427111753263    5    2    3    2
 -2.95984133157832e-08    5    2    3    3
 -0.03098816777152761    5    2    4    1
 -0.004622835820783094    5    2    4    3
 -1.724167062792051e-07    5    2    4    4
 4.217333195781946e-08    5    2    5    1
 0.03269628315289449    5    2    5    2
 -0.001335231859626202    5    3    1    1
 -0.005554801086010423    5    3    2    2
 -0.01436840807017523    5    3    3    1
 -1.006167243171557e-08    5    3    3    2
 -0.01052534215007652    5    3    3    3
 -0.004623341932183695    5    3    4    2
 0.02251901809619925    5    3    4    4
 0.002837328151624062    5    3    5    1
 0.01130663879418674    5    3    5    3
 -0.351537110914024    5    4    2    1
 -0.05244254389771041    5    4    3    2
 0.1976631187438895    5    4    4    1
 -1.387053239414455e-07    5    4    4    2
 0.02948751770398426    5    4    4    3
 2.652731259100511e-06    5    4    4    4
 -1.320380756311612e-07    5    4    5    1
 -0.2072026065764083    5    4    5    2
 -1.972831109459447e-08    5    4    5    3
 1.947740131345782    5    4    5    4
 -1.943299724903566    5    5    1    1
 4.785830239037663e-07    5    5    2    1
 -1.932096668826559    5    5    2    2
 -0.005464431138465522    5    5    3    1
 7.139156120945923e-08    5    5    3    2
 -1.907485294716195    5    5    3    3
 -1.644308871031068e-07    5    5    4    1
 -0.1585375115699379    5    5    4    2
 -2.455346307071737e-08    5    5    4    3
 -1.811661839378746    5    5    4    4
 0.1510300622278257    5    5    5    1
 3.919776441667187e-07    5    5    5    2
 0.02253076680201152    5    5    5    3
 -2.652177784228423e-06    5    5    5    4
 -1.811255533455336    5    5    5    5
 -0.04225944778505669    6    1    2    1
 0.06194672523191103    6    1    3    2
 -0.001256979323019109    6    1    4    1
 0.01419399168122852    6    1    4    3
 7.19142097960518e-08    6    1    4    4
 -0.0008519545070337155    6    1    5    2
 0.05280762499521627    6    1    5    4
 -7.191383783730068e-08    6    1    5    5
 0.07252203486498815    6    1    6    1
 -0.02208616458728744    6    2    1    1
 0.07237746982939418    6    2    3    1
 0.02208616458728772    6    2    3    3
 -1.027818392329997e-08    6    2    4    3
 0.0022897518013664    6    2    5    1
 -0.01534884986762968    6    2    5    3
 0.07978737326610882    6    2    6    2
 0.2150259374485359    6    3    2    1
 0.04225944778505727    6    3    3    2
 -0.005955623025735201    6    3    4    1
 0.001256979323019154    6    3    4    3
 -4.820611620885487e-07    6    3    4    4
 0.005710890505559429    6    3    5    2
 -0.35398435211798    6    3    5    4
 4.820586645780254e-07    6    3    5    5
 -0.02729948955054065    6    3    6    1
 0.2514456296333994    6    3    6    3
 -0.004452751572865874    6    4    1    1
 0.01459189038228901    6    4    3    1
 0.004452751572866056    6    4    3    3
 -1.459591597085517e-08    6    4    4    3
 0.001604241112308579    6    4    5    1
 -0.01075367905360306    6    4    5    3
 -1.02239572652589e-08    6    4    6    1
 0.01623140370187294    6    4    6    2
 0.01135558985355671    6    4    6    4
 0.002200333719195335    6    5    2    1
 -0.01474945533155975    6    5    3    2
 0.001593579371020627    6    5    4    1
 -0.01068221040522876    6    5    4    3
 1.459575324775919e-08    6    5    5    3
 -0.01473720870247379    6    5    6    1
 -1.123999053499394e-08    6    5    6    2
 -0.002198506758787749    6    5    6    3
 0.0112440088937063    6    5    6    5
 -0.5797961707073589    6    6    1    1
 -0.5764860279894216    6    6    2    2
 -0.009770824321613865    6    6    3    1
 -0.515757207332707    6    6    3    3
 -2.833417972166012e-08    6    6    4    1
 0.04259524036151448    6    6    4    2
 -1.900550766255274    6    6    4    4
 -0.0408549820353236    6    6    5    1
 -2.950371158446507e-08    6    6    5    2
 -0.006094773844095256    6    6    5    3
 -1.90062331266932    6    6    5    5
 -0.5099903028186342    6    6    6    6
 -0.02685947369861032    7    1    2    1
 -0.002907766411547303    7    1    3    2
 0.0005978033068325283    7    1    4    1
 0.00041508506285738    7    1    4    3
 8.101536100857494e-08    7    1    4    4
 -0.003202667794017535    7    1    5    2
 0.05944128208206766    7    1    5    4
 -8.088092212406068e-08    7    1    5    5
 0.005906724980644064    7    1    6    1
 -0.0292222899674737    7    1    6    3
 -0.000313908142795595    7    1    6    5
 0.07098305054260963    7    1    7    1
 -0.01199430301148057    7    2    1    1
 0.02017916681600382    7    2    2    2
 -0.001932810403078367    7    2    3    1
 0.0006735303809512927    7    2    3    3
 0.002327180364167072    7    2    4    2
 -0.005532449685594062    7    2    4    4
 0.0003288422309377367    7    2    5    1
 4.905690635758943e-05    7    2    5    3
 -0.005477589770334994    7    2    5    5
 0.003086999769139592    7    2    6    6
 0.078117216776329    7    2    7    2
 -0.002907766411546039    7    3    2    1
 -0.007801680763039495    7    3    3    2
 0.000415085062857218    7    3    4    1
 -0.0021227058603296    7    3    4    3
 1.20851056072759e-08    7    3    4    4
 -0.0004777761469929388    7    3    5    2
 0.008867490652178595    7    3    5    4
 -1.2066683226988e-08    7    3    5    5
 -0.009490978457879851    7    3    6    1
 -0.005906724980642246    7    3    6    3
 0.002104214506183963    7    3    6    5
 0.007301138272058339    7    3    7    1
 0.02313065743762351    7    3    7    3
 -0.009327631242399071    7    4    1    1
 -0.002824008342054145    7    4    2    2
 -0.0003620600377780762    7    4    3    1
 -0.006954653412123797    7    4    3    3
 -0.004034359844846323    7    4    4    2
 0.02417122879691457    7    4    4    4
 0.005663839148586725    7    4    5    1
 0.0008449353537867062    7    4    5    3
 2.357625492582972e-08    7    4    5    4
 0.02422741632499024    7    4    5    5
 -0.00655137699633245    7    4    6    6
 -1.028971542249289e-08    7    4    7    1
 0.01677935691001066    7    4    7    2
 0.0131014273549134    7    4    7    4
 -0.003839764001318204    7    5    2    1
 -0.0005728185899703511    7    5    3    2
 0.005681104790951616    7    5    4    1
 0.000847511053988853    7    5    4    3
 3.061619311095697e-08    7    5    4    4
 -0.004045967176971136    7    5    5    2
 0.0345665313777969    7    5    5    4
 -6.35682586962537e-08    7    5    5    5
 0.0004445186221628163    7    5    6    1
 -0.002979733257932642    7    5    6    3
 -0.01481969672171114    7    5    7    1
 -1.161096557380368e-08    7    5    7    2
 -0.002210812377271816    7    5    7    3
 0.01292910026662811    7    5    7    5
 0.003906558589131488    7    6    1    1
 -0.01280198856185156    7    6    3    1
 -0.003906558589131181    7    6    3    3
 -0.0003452392525673482    7    6    5    1
 0.002314235740706362    7    6    5    3
 -0.009351445649449057    7    6    6    2
 -0.002456954734167172    7    6    6    4
 0.02343421723865557    7    6    7    6
 -0.5732965286100644    7    7    1    1
 -0.579600314205216    7    7    2    2
 -0.003218615218176021    7    7    3    1
 -0.5522014013936318    7    7    3    3
 -2.811208595666802e-08    7    7    4    1
 0.04146856834634785    7    7    4    2
 -1.886021524575402    7    7    4    4
 -0.04055048872309886    7    7    5    1
 -2.873413791534617e-08    7    7    5    2
 -0.006049349325894611    7    7    5    3
 -1.886106243136048    7    7    5    5
 -0.5510980670730732    7    7    6    6
 -0.01061877347908509    7    7    7    2
 -0.01105772246679743    7    7    7    4
 -0.5015766448436104    7    7    7    7
 -0.01776144962116985    8    1    1    1
 -0.001877771455600877    8    1    2    1
 0.01573142875040149    8    1    2    2
 -0.003311433962730545    8    1    3    1
 0.00275256105796807    8    1    3    2
 -0.0007855003121652215    8    1    3    3
 -5.585178295126583e-05    8    1    4    1
 0.0006169937416011352    8    1    4    2
 0.0006307008695283061    8    1    4    3
 0.004665004560245991    8    1    4    4
 0.001800349010775539    8    1    5    1
 -3.785642901547959e-05    8    1    5    2
 0.0005179177216187243    8    1    5    3
 0.002346472627987417    8    1    5    4
 0.004718777743105806    8    1    5    5
 0.0002274589753431009    8    1    6    1
 -0.001373898445821654    8    1    6    2
 -0.00152472132914604    8    1    6    3
 -0.0002460749652758186    8    1    6    4
 0.002588052534139322    8    1    6    6
 0.0002624597931221225    8    1    7    1
 0.07543119834967026    8    1    7    2
 -0.0004217254930858247    8    1    7    3
 0.01589530615752356    8    1    7    4
 1.974125194245679e-05    8    1    7    5
 -0.002811136263153359    8    1    7    6
 -0.02136667920842915    8    1    7    7
 0.08015611522413933    8    1    8    1
 -0.0009813857474505697    8    2    1    1
 0.06622422220270936    8    2    2    1
 0.003216044134792927    8    2    3    1
 0.009879374324275539    8    2    3    2
 0.000981383861792151    8    2    3    3
 -0.002752553662021331    8    2    4    1
 -0.0004106282833059444    8    2    4    3
 -1.315721149999826e-07    8    2    4    4
 0.0001017454796590886    8    2    5    1
 0.0003918361240749046    8    2    5    2
 -0.0006820155803765513    8    2    5    3
 -0.09665770408889125    8    2    5    4
 1.316876597694973e-07    8    2    5    5
 -0.009634439399463188    8    2    6    1
 0.06458235669269519    8    2    6    3
 0.05517576614985552    8    2    7    1
 0.008231158095632039    8    2    7    3
 -1.042539212777149e-08    8    2    7    4
 -0.0155979625379331    8    2    7    5
 -0.0004891486809293653    8    2    8    1
 0.08520884761105951    8    2    8    2
 -0.004029467461000262    8    3    1    1
 0.009554533324514242    8    3    2    1
 0.002346825419594879    8    3    2    2
 0.004027678937494572    8    3    3    1
 0.001877770284821968    8    3    3    2
 0.001262620682514275    8    3    3    3
 -0.0002646337639183972    8    3    4    1
 9.204371702772598e-05    8    3    4    2
 5.585194926747355e-05    8    3    4    3
 0.0006959066377982133    8    3    4    4
 0.0005179183197446061    8    3    5    1
 0.0002537595348248211    8    3    5    2
 -0.001594138558923345    8    3    5    3
 -0.01572905741947662    8    3    5    4
 0.0007039723509939211    8    3    5    5
 -0.001524720655996686    8    3    6    1
 0.009209629199852938    8    3    6    2
 0.01022063034300522    8    3    6    3
 0.001649510011034973    8    3    6    4
 0.0003860875703005126    8    3    6    6
 -0.001298473106652152    8    3    7    1
 0.01125287715606861    8    3    7    2
 -0.0002624614082305833    8    3    7    3
 0.002371272428024867    8    3    7    4
 -0.0001324040403363302    8    3    7    5
 0.01884383613742408    8    3    7    6
 -0.00318749564923908    8    3    7    7
 0.008704056683194605    8    3    8    1
 0.003278897391661234    8    3    8    2
 0.02310885375893407    8    3    8    3
 -0.0001978561034885817    8    4    1    1
 0.0008923874944508603    8    4    2    1
 0.0006483811815333978    8    4    3    1
 0.0001331265219580002    8    4    3    2
 0.0001978519571520348    8    4    3    3
 0.003023761174484853    8    4    4    1
 0.0004510860735324249    8    4    4    3
 4.498237360126658e-08    8    4    4    4
 7.128343603394548e-05    8    4    5    1
 -0.004884156276855633    8    4    5    2
 -0.0004778325180065439    8    4    5    3
 0.02321049545463187    8    4    5    4
 -1.8254238147309e-08    8    4    5    5
 -0.0001543851018253535    8    4    6    1
 0.001034887065991886    8    4    6    3
 0.01381641483513521    8    4    7    1
 -1.025680886567442e-08    8    4    7    2
 0.002061142172151307    8    4    7    3
 -1.39889106004442e-08    8    4    7    4
 -0.01019682837400342    8    4    7    5
 -1.780452416616701e-05    8    4    8    1
 0.01420658017717315    8    4    8    2
 0.0001192778442544851    8    4    8    3
 0.01061075959172538    8    4    8    4
 -0.00154315557012025    8    5    1    1
 9.77698177663622e-05    8    5    2    1
 -0.007230573077576824    8    5    2    2
 0.0004541914188128478    8    5    3    1
 -0.0006553822487556278    8    5    3    2
 -0.004519974827355002    8    5    3    3
 7.080968853387178e-05    8    5    4    1
 -0.004870525270840717    8    5    4    2
 -0.0004746568565099154    8    5    4    3
 0.0196527003485788    8    5    4    4
 0.003023041017218503    8    5    5    1
 0.0004509799659631738    8    5    5    3
 -1.583436339657137e-08    8    5    5    4
 0.01962337215541545    8    5    5    5
 -0.004858516333749824    8    5    6    6
 -1.395752120331318e-05    8    5    7    1
 -0.01531278561391075    8    5    7    2
 9.349798395424747e-05    8    5    7    3
 -0.01034712775216943    8    5    7    4
 1.398811530826187e-08    8    5    7    5
 -0.0005905955045236012    8    5    7    7
 -0.01479059954514754    8    5    8    1
 -0.00220647172382871    8    5    8    3
 0.010727285054484    8    5    8    5
 3.838731434466565e-05    8    6    1    1
 -0.001730638837417467    8    6    2    1
 -0.0002573208173226701    8    6    3    1
 0.01160096373084166    8    6    3    2
 0.001724892823527903    8    6    3    3
 -0.0002909372527476682    8    6    4    1
 0.001950234038589174    8    6    4    3
 0.008441957686842921    8    6    6    1
 0.001259377780459348    8    6    6    3
 -0.002079998441218406    8    6    6    5
 -0.002615475003558531    8    6    7    1
 0.01753226333017821    8    6    7    3
 0.02054242071760948    8    6    8    6
 0.0001735803026990158    8    7    1    1
 0.2076623784238599    8    7    2    1
 -0.0005688484903878621    8    7    3    1
 0.03097921401674253    8    7    3    2
 -0.0001735855026693692    8    7    3    3
 -0.00555962367576782    8    7    4    1
 -0.0008293883475017347    8    7    4    3
 -4.687903946798639e-07    8    7    4    4
 -1.533675695839494e-05    8    7    5    1
 0.005601932943352267    8    7    5    2
 0.0001028320705066032    8    7    5    3
 -0.3442379384278148    8    7    5    4
 4.687838823571224e-07    8    7    5    5
 -0.03026271933543541    8    7    6    1
 0.2028595129090177    8    7    6    3
 -0.02730234716696067    8    7    7    1
 -0.004072982610637422    8    7    7    3
 -0.003206566294142033    8    7    7    5
 -0.001469615344666956    8    7    8    1
 0.06828352719530169    8    7    8    2
 0.009851239716219158    8    7    8    3
 0.001062261621963608    8    7    8    4
 0.2329034228162455    8    7    8    7
 -0.5827516129061368    8    8    1    1
 -0.0001538011983966411    8    8    2    1
 -0.5790307624618357    8    8    2    2
 -0.003785321684700906    8    8    3    1
 0.001030961857362107    8    8    3    2
 -0.5579422347083212    8    8    3    3
 -2.588368395553711e-05    8    8    4    1
 0.04318631805516632    8    8    4    2
 0.0001733104441510225    8    8    4    3
 -1.913137078469353    8    8    4    4
 -0.04112333083543255    8    8    5    1
 -2.995225771830513e-08    8    8    5    2
 -0.00613480642023923    8    8    5    3
 -1.913198464848857    8    8    5    5
 -0.5566530223629802    8    8    6    6
 -0.0002324337591837209    8    8    7    1
 0.01829918196139871    8    8    7    2
 0.00155806875813968    8    8    7    3
 -0.003875964309345395    8    8    7    4
 -0.5178460625913602    8    8    7    7
 0.005691138955135106    8    8    8    1
 0.000849007877631637    8    8    8    3
 -0.007447787626682413    8    8    8    5
 -0.515942260456642    8    8    8    8
 -0.003785835669018042    9    1    1    1
 0.008809659536857811    9    1    2    1
 0.003353138628959809    9    1    2    2
 -0.0007058285300558577    9    1    3    1
 -0.01291378862763421    9    1    3    2
 -0.0001674285141404668    9    1    3    3
 0.000262037770339161    9    1    4    1
 0.0001315117293312122    9    1    4    2
 -0.002958965181788037    9    1    4    3
 0.0009943254272009765    9    1    4    4
 0.0003837424251208476    9    1    5    1
 0.0001776034980497065    9    1    5    2
 0.0001103957148935022    9    1    5    3
 -0.0110085962876319    9    1    5    4
 0.001005818473327805    9    1    5    5
 -0.00106713533151335    9    1    6    1
 -0.0002928450930983675    9    1    6    2
 0.007153308073006555    9    1    6    3
 -5.245063493754235e-05    9    1    6    4
 0.0005516408364129081    9    1    6    6
 -0.001231351910196117    9    1    7    1
 0.01607808517938963    9    1    7    2
 0.001978546660919838    9    1    7    3
 0.00338806869255558    9    1    7    4
 -9.266930440231445e-05    9    1    7    5
 -0.0005991909093164595    9    1    7    6
 -0.004554286501786568    9    1    7    7
 0.002668732317949869    9    1    8    1
 0.001995442147430805    9    1    8    2
 0.0006924138261393906    9    1    8    3
 2.985366349163627e-05    9    1    8    4
 -1.138022810941582e-05    9    1    8    5
 0.006282124299413511    9    1    8    7
 -0.002385729307735575    9    1    8    8
 0.06820445203865852    9    1    9    1
 0.004604214914303275    9    2    1    1
 0.01411562741367186    9    2    2    1
 -0.01508824467846337    9    2    3    1
 0.002105778473007725    9    2    3    2
 -0.004604215316228111    9    2    3    3
 -0.0005867044201956043    9    2    4    1
 -8.752277176601678e-05    9    2    4    3
 -2.804446571722136e-08    9    2    4    4
 -0.0004773350905787138    9    2    5    1
 8.351948130591705e-05    9    2    5    2
 0.003199714032540809    9    2    5    3
 -0.0206024938702061    9    2    5    4
 2.806909446267297e-08    9    2    5    5
 -0.002053571212864732    9    2    6    1
 0.01376566534880669    9    2    6    3
 0.01176065988206979    9    2    7    1
 0.001754463219710132    9    2    7    3
 -0.003324690260702426    9    2    7    5
 0.0001951633167253704    9    2    8    1
 0.001155581887455037    9    2    8    2
 -0.00130822664299036    9    2    8    3
 -0.0004315891280749448    9    2    8    4
 0.01654781754821968    9    2    8    7
 0.0004891485063304185    9    2    9    1
 0.08003368440098636    9    2    9    2
 -0.000858875874156092    9    3    1    1
 -0.04482560602124838    9    3    2    1
 0.0005002223533971018    9    3    2    2
 0.0008584959859144964    9    3    3    1
 -0.00880965978640808    9    3    3    2
 0.0002691264087764957    9    3    3    3
 0.001241545232279019    9    3    4    1
 1.961819483211026e-05    9    3    4    2
 -0.0002620377348890276    9    3    4    3
 0.0001484368692657268    9    3    4    4
 0.0001103929087538873    9    3    5    1
 -0.001190526749388565    9    3    5    2
 -0.0003397888713084004    9    3    5    3
 0.07379371664652253    9    3    5    4
 0.0001499459504906454    9    3    5    5
 0.007153308216487666    9    3    6    1
 0.001963023346631314    9    3    6    2
 -0.04795063559665513    9    3    6    3
 0.0003515914245438402    9    3    6    4
 8.229416306049079e-05    9    3    6    6
 0.006091855062781719    9    3    7    1
 0.002398539695582185    9    3    7    2
 0.001231351565936982    9    3    7    3
 0.0005054348107408136    9    3    7    4
 0.0006211728581080715    9    3    7    5
 0.004016545002340484    9    3    7    6
 -0.0006794115497458503    9    3    7    7
 0.0006924139728664131    9    3    8    1
 -0.0133760024570599    9    3    8    2
 -0.001869417272629382    9    3    8    3
 -0.0002001160475721545    9    3    8    4
 -1.697570951147773e-06    9    3    8    5
 -0.04211084718517562    9    3    8    7
 -0.0003559043681894278    9    3    8    8
 0.005603147560455852    9    3    9    1
 -0.003278897400943771    9    3    9    2
 0.03148086076976833    9    3    9    3
 0.0009282472657951039    9    4    1    1
 0.0001902111902009354    9    4    2    1
 -0.003041913559598021    9    4    3    1
 2.837793508376152e-05    9    4    3    2
 -0.0009282481495830398    9    4    3    3
 0.000644511223878204    9    4    4    1
 9.615173062217253e-05    9    4    4    3
 -0.000334429782074312    9    4    5    1
 -0.001041053071570769    9    4    5    2
 0.002241776904695847    9    4    5    3
 0.004947294109351848    9    4    5    4
 -3.290703138714811e-05    9    4    6    1
 0.000220585152772505    9    4    6    3
 0.002944955179486643    9    4    7    1
 0.000439330099545018    9    4    7    3
 -0.002173443864971186    9    4    7    5
 4.983630834557867e-05    9    4    8    1
 -0.0004315891280550197    9    4    8    2
 -0.0003340652335844173    9    4    8    3
 -0.0001587598323368053    9    4    8    4
 0.0007501174794936925    9    4    8    7
 1.778405127960903e-05    9    4    9    1
 0.01613941090685072    9    4    9    2
 -0.0001192808939050455    9    4    9    3
 0.01132175035259224    9    4    9    4
 -0.0003289227300258667    9    5    1    1
 -0.0004586949747609453    9    5    2    1
 -0.001541189488437411    9    5    2    2
 9.681257830954972e-05    9    5    3    1
 0.003074760548959905    9    5    3    2
 -0.000963427505931974    9    5    3    3
 -0.0003322071711090062    9    5    4    1
 -0.00103814763614189    9    5    4    2
 0.00222687811847846    9    5    4    3
 0.004188953607536265    9    5    4    4
 0.0006443586721499212    9    5    5    1
 9.612275195218705e-05    9    5    5    3
 0.004182702332221677    9    5    5    5
 -0.00103558794275341    9    5    6    6
 6.543722199630468e-05    9    5    7    1
 -0.003263905081733783    9    5    7    2
 -0.0004386575621701476    9    5    7    3
 -0.002205480028511654    9    5    7    4
 -0.0001258848466305726    9    5    7    7
 -1.138024175404608e-05    9    5    8    1
 -1.697479487462059e-06    9    5    8    3
 -0.0001101391743635056    9    5    8    5
 -0.0007007893396149372    9    5    8    8
 -0.01473963439460777    9    5    9    1
 -1.127747434825437e-08    9    5    9    2
 -0.002198868542149763    9    5    9    3
 0.01122053283781592    9    5    9    5
 -0.0001800959422990733    9    6    1    1
 -0.0003688839521483458    9    6    2    1
 0.001207233747611447    9    6    3    1
 0.002472733926557257    9    6    3    2
 -0.008092427307172094    9    6    3    3
 -6.201298720435285e-05    9    6    4    1
 0.0004156904530405897    9    6    4    3
 0.001799394916746821    9    6    6    1
 0.0002684351259134508    9    6    6    3
 -0.0004433496068972391    9    6    6    5
 -0.0005574859058218827    9    6    7    1
 0.003736984557950608    9    6    7    3
 -0.0001397941920522463    9    6    8    6
 0.02116847566809149    9    6    9    6
 -0.0008143858728685475    9    7    1    1
 0.04426303020494123    9    7    2    1
 0.002668779727862018    9    7    3    1
 0.006603188808598601    9    7    3    2
 0.0008143847644998998    9    7    3    3
 -0.001185028226815578    9    7    4    1
 -0.0001767836479756567    9    7    4    3
 -9.992220805713561e-08    9    7    4    4
 7.197145281104222e-05    9    7    5    1
 0.001194046456593689    9    7    5    2
 -0.0004824394453856467    9    7    5    3
 -0.07337397550729814    9    7    5    4
 9.992082015177539e-08    9    7    5    5
 -0.006450468642338099    9    7    6    1
 0.04323930418472972    9    7    6    3
 -0.005819468247524982    9    7    7    1
 -0.0008681522088845265    9    7    7    3
 -0.0006834764285521497    9    7    7    5
 0.000299403786906693    9    7    8    1
 0.01654781754226787    9    7    8    2
 -0.002006990464236477    9    7    8    3
 0.0007501174794935516    9    7    8    4
 0.04464815362821035    9    7    8    7
 0.001469614605558553    9    7    9    1
 -0.005824294734380601    9    7    9    2
 -0.009851239817180854    9    7    9    3
 -0.00229706793662441    9    7    9    4
 0.03295092694742408    9    7    9    7
 -0.0004541739843594224    9    8    1    1
 0.0003443917743307561    9    8    2    1
 -0.0005424076307380285    9    8    2    2
 9.753073024944245e-05    9    8    3    1
 -0.002308532194066962    9    8    3    2
 -0.001093399990434845    9    8    3    3
 5.78949012760716e-05    9    8    4    1
 0.0001259876248293024    9    8    4    2
 -0.0003880866624882232    9    8    4    3
 -0.002682759978005673    9    8    4    4
 -5.719832406092151e-05    9    8    5    1
 -8.53261438654867e-06    9    8    5    3
 -0.002680381227684202    9    8    5    5
 -0.0009093308083319237    9    8    6    6
 0.0005204656992570809    9    8    7    1
 0.003242461562721174    9    8    7    2
 -0.003488831203260943    9    8    7    3
 0.0005702615634505763    9    8    7    4
 0.007087631809419077    9    8    7    7
 -0.001137975180708342    9    8    8    1
 -0.0001697637183352012    9    8    8    3
 -0.0001085510037587638    9    8    8    5
 -7.973468094547621e-05    9    8    8    8
 0.007815860389966537    9    8    9    1
 0.001165974595453566    9    8    9    3
 -0.002008636450675645    9    8    9    5
 0.02074904530373253    9    8    9    8
 -0.5807176380962377    9    9    1    1
 0.0001538011018813878    9    9    2    1
 -0.5766016416383396    9    9    2    2
 -0.004222103611221346    9    9    3    1
 -0.001030961878567981    9    9    3    2
 -0.5530455471393464    9    9    3    3
 2.582682180191447e-05    9    9    4    1
 0.04262209449893264    9    9    4    2
 -0.0001733189141374056    9    9    4    3
 -1.901122593886528    9    9    4    4
 -0.04086717381063264    9    9    5    1
 -2.948415695460862e-08    9    9    5    2
 -0.006096592500679493    9    9    5    3
 -1.901194633272296    9    9    5    5
 -0.5525806711027123    9    9    6    6
 0.0002324334967935379    9    9    7    1
 0.003778127238745751    9    9    7    2
 -0.001558068793999657    9    9    7    3
 -0.006429826309094247    9    9    7    4
 -0.5495873453752727    9    9    7    7
 0.001961955038053429    9    9    8    1
 0.0002926857206519928    9    9    8    3
 -0.004787154343207065    9    9    8    5
 -0.5566104237441657    9    9    8    8
 0.004016978710409774    9    9    9    1
 0.0005992552230567495    9    9    9    3
 -0.001907076418968679    9    9    9    5
 -0.001138526166978562    9    9    9    8
 -0.5104863954909766    9    9    9    9
 -0.01595293703917246   10    1    6    2
 -0.003216242693503999   10    1    6    4
 0.001248012647628495   10    1    6    6
 0.002821724968059099   10    1    7    6
 0.01560244469745232   10    1    8    2
 0.003145580568995188   10    1    8    4
 -0.00058256930573049   10    1    8    6
 -0.002759730608074968   10    1    8    7
 -5.423636830487283e-05   10    1    8    8
 -0.07319970548284098   10    1    9    2
 -0.01475765982074133   10    1    9    4
 0.002733155264219614   10    1    9    6
 0.01294742404360542   10    1    9    7
 0.0002544523534978328   10    1    9    8
 -0.001193776262446534   10    1    9    9
 0.07503699799787157   10    1   10    1
 -0.0143884119387525   10    2    6    1
 -0.00214647189850755   10    2    6    3
 0.003178622082374824   10    2    6    5
 0.01407229268708145   10    2    8    1
 0.00209931418840655   10    2    8    3
 -0.003108786501814898   10    2    8    5
 -0.002500097685792175   10    2    8    6
 0.004890339106379083   10    2    8    8
 -0.06602091531890318   10    2    9    1
 -0.009849045021322408   10    2    9    3
 0.01458503848262451   10    2    9    5
 -0.0005328933418005578   10    2    9    6
 -0.01095045853515421   10    2    9    8
 -0.004890339107619851   10    2    9    9
 0.07173031871321832   10    2   10    2
 -0.002379869773894153   10    3    6    2
 -0.0004798012309883165   10    3    6    4
 -0.008365779233820259   10    3    6    6
 0.0004209471663782055   10    3    7    6
 0.002327583259580539   10    3    8    2
 0.0004692598374861568   10    3    8    4
 0.003905125991348804   10    3    8    6
 -0.0004116984543805492   10    3    8    7