 &FCI NORB=  10,NELEC=14,MS2=0,
  ORBSYM=1,1,1,1,1,1,1,1,1,1,
  ISYM=1,
 &END
 -3.589352953442304    1    1    1    1
 3.935315357755573    2    1    2    1
 -3.589681006262519    2    2    1    1
 -3.590008952032627    2    2    2    2
 -0.2714665964864718    3    1    1    1
 -0.271403105693915    3    1    2    2
 0.04243508546638367    3    1    3    1
 -0.2908342195676834    3    2    2    1
 0.04238604612380292    3    2    3    2
 -3.830516256230022    3    3    1    1
 -3.830446519164644    3    3    2    2
 0.02727363507539667    3    3    3    1
 -1.028050044349329    3    3    3    3
 -0.2708893816344579    4    1    2    1
 0.03841654784537867    4    1    3    2
 0.03492318641118249    4    1    4    1
 -0.2525531733464516    4    2    1    1
 -0.2524967143322387    4    2    2    2
 0.03846740650404146    4    2    3    1
 0.02302634906737535    4    2    3    3
 0.03497052900396459    4    2    4    2
 0.6775362486442243    4    3    2    1
 0.006140710459186296    4    3    3    2
 0.003639159400092917    4    3    4    1
 0.4919802614509818    4    3    4    3
 -3.897804581265233    4    4    1    1
 -3.897737993848402    4    4    2    2
 0.02674472190412898    4    4    3    1
 -1.04704045857918    4    4    3    3
 0.02274280782187672    4    4    4    2
 -1.051206199201475    4    4    4    4
 0.02102460668051954    5    1    5    1
 0.02097167788101018    5    2    5    2
 0.02478376457681296    5    3    5    1
 0.133045189439742    5    3    5    3
 0.02234540354526236    5    4    5    2
 0.1056993962809421    5    4    5    4
 -3.803829303678389    5    5    1    1
 -3.80380062529535    5    5    2    2
 0.01331303243603507    5    5    3    1
 -1.136269653202024    5    5    3    3
 0.01208136343074131    5    5    4    2
 -1.155527767350861    5    5    4    4
 -1.019980605637269    5    5    5    5
 0.02102460668051953    6    1    6    1
 0.02097167788101015    6    2    6    2
 0.02478376457681292    6    3    6    1
 0.1330451894397418    6    3    6    3
 0.02234540354526234    6    4    6    2
 0.105699396280942    6    4    6    4
 0.04239654532324063    6    5    6    5
 -3.803829303678385    6    6    1    1
 -3.803800625295346    6    6    2    2
 0.01331303243603507    6    6    3    1
 -1.136269653202023    6    6    3    3
 0.01208136343074128    6    6    4    2
 -1.15552776735086    6    6    4    4
 -1.104773696283749    6    6    5    5
 -1.019980605637267    6    6    6    6
 -0.00953513010822154    7    1    5    2
 -0.01013893617717711    7    1    5    4
 -0.01819759933145748    7    1    6    2
 -0.01934995077208249    7    1    6    4
 0.02012580780030065    7    1    7    1
 -0.009571763703893057    7    2    5    1
 -0.01131330358186881    7    2    5    3
 -0.0182675137939278    7    2    6    1
 -0.02159120676502132    7    2    6    3
 0.02022973037913959    7    2    7    2
 -0.01092175140260492    7    3    5    2
 -0.05188325591396752    7    3    5    4
 -0.02084393749918723    7    3    6    2
 -0.09901812480983052    7    3    6    4
 0.02300468083334229    7    3    7    1
 0.1183947350485967    7    3    7    3
 -0.01080565452180163    7    4    5    1
 -0.05957207258743254    7    4    5    3
 -0.02062236899445665    7    4    6    1
 -0.1136920729960334    7    4    6    3
 0.02289626202557442    7    4    7    2
 0.1248993807466889    7    4    7    4
 -0.3398914791995514    7    5    2    1
 0.002696990416730483    7    5    3    2
 0.002630220638442666    7    5    4    1
 -0.195818538595635    7    5    4    3
 0.1466691535537955    7    5    7    5
 -0.6486758842773145    7    6    2    1
 0.005147150636374052    7    6    3    2
 0.005019721890364156    7    6    4    1
 -0.3737156458895503    7    6    4    3
 0.2021152591736927    7    6    7    5
 0.426498140419709    7    6    7    6
 -3.815939236890844    7    7    1    1
 -3.815909523524793    7    7    2    2
 0.01378633996699552    7    7    3    1
 -1.134922417673157    7    7    3    3
 0.0124825510652389    7    7    4    2
 -1.152085483203576    7    7    4    4
 -1.090091902845154    7    7    5    5
 0.0341101430970055    7    7    6    5
 -1.042866340442248    7    7    6    6
 -1.02934987555717    7    7    7    7
 -0.0181975993314575    8    1    5    2
 -0.01934995077208251    8    1    5    4
 0.009535130108221539    8    1    6    2
 0.01013893617717711    8    1    6    4
 0.02012580780030066    8    1    8    1
 -0.01826751379392783    8    2    5    1
 -0.02159120676502134    8    2    5    3
 0.009571763703893057    8    2    6    1
 0.0113133035818688    8    2    6    3
 0.02022973037913961    8    2    8    2
 -0.02084393749918725    8    3    5    2
 -0.09901812480983059    8    3    5    4
 0.01092175140260492    8    3    6    2
 0.05188325591396751    8    3    6    4
 0.0230046808333423    8    3    8    1
 0.1183947350485968    8    3    8    3
 -0.02062236899445666    8    4    5    1
 -0.1136920729960335    8    4    5    3
 0.01080565452180163    8    4    6    1
 0.05957207258743252    8    4    6    3
 0.02289626202557443    8    4    8    2
 0.124899380746689    8    4    8    4
 -0.648675884277315    8    5    2    1
 0.005147150636374064    8    5    3    2
 0.005019721890364169    8    5    4    1
 -0.3737156458895506    8    5    4    3
 0.2021152591736927    8    5    7    5
 0.344967474306456    8    5    7    6
 0.4264981404197099    8    5    8    5
 0.3398914791995513    8    6    2    1
 -0.002696990416730486    8    6    3    2
 -0.002630220638442673    8    6    4    1
 0.195818538595635    8    6    4    3
 -0.06513848744054251    8    6    7    5
 -0.2021152591736925    8    6    7    6
 -0.2021152591736929    8    6    8    5
 0.1466691535537955    8    6    8    6
 0.03411014309700585    8    7    5    5
 0.02361278120145211    8    7    6    5
 -0.03411014309700533    8    7    6    6
 0.04066653620856152    8    7    8    7
 -3.815939236890849    8    8    1    1
 -3.815909523524799    8    8    2    2
 0.01378633996699552    8    8    3    1
 -1.134922417673158    8    8    3    3
 0.01248255106523892    8    8    4    2
 -1.152085483203577    8    8    4    4
 -1.04286634044225    8    8    5    5
 -0.03411014309700564    8    8    6    5
 -1.090091902845154    8    8    6    6
 -1.110682947974295    8    8    7    7
 -1.029349875557173    8    8    8    8
 0.1721442808140317    9    1    2    1
 -0.01091331263154469    9    1    3    2
 -0.01147147901346881    9    1    4    1
 0.02111122649488114    9    1    4    3
 9.066759641933527e-05    9    1    7    5
 0.0001730372394774899    9    1    7    6
 0.0001730372394774887    9    1    8    5
 -9.066759641933425e-05    9    1    8    6
 0.02689454228854342    9    1    9    1
 0.1677545944198008    9    2    1    1
 0.1677554370389435    9    2    2    2
 -0.01085435715024242    9    2    3    1
 0.02018029962956057    9    2    3    3
 -0.01139074808612145    9    2    4    2
 0.01662317807953772    9    2    4    4
 -0.005189623656678528    9    2    5    5
 -0.005189623656678518    9    2    6    6
 -0.004891874261351328    9    2    7    7
 -0.004891874261351336    9    2    8    8
 0.02699698658287293    9    2    9    2
 0.003871289438918579    9    3    2    1
 0.00784211746303151    9    3    3    2
 0.006488790039701535    9    3    4    1
 0.04731497364199729    9    3    4    3
 0.008145316873085728    9    3    7    5
 0.01554516941057458    9    3    7    6
 0.01554516941057464    9    3    8    5
 -0.008145316873085761    9    3    8    6
 0.007571799673713031    9    3    9    1
 0.03327562623493176    9    3    9    3
 0.02535444173961087    9    4    1    1
 0.02537690852176983    9    4    2    2
 0.009466079201216839    9    4    3    1
 0.1069180062036717    9    4    3    3
 0.007870743459130145    9    4    4    2
 0.1120472138281784    9    4    4    4
 0.01479331815270604    9    4    5    5
 0.01479331815270588    9    4    6    6
 0.01811336183584112    9    4    7    7
 0.01811336183584104    9    4    8    8
 0.009454329320499999    9    4    9    2
 0.04983820237928472    9    4    9    4
 -0.01505144371866042    9    5    5    2
 -0.04924471464733816    9    5    5    4
 0.006839413772031178    9    5    7    1
 0.02292719847442733    9    5    7    3
 0.01305288025154068    9    5    8    1
 0.04375608585253491    9    5    8    3
 0.07374114818423974    9    5    9    5
 -0.0150514437186604    9    6    6    2
 -0.04924471464733812    9    6    6    4
 0.01305288025154066    9    6    7    1
 0.04375608585253488    9    6    7    3
 -0.006839413772031178    9    6    8    1
 -0.02292719847442732    9    6    8    3
 0.07374114818423966    9    6    9    6
 0.006912301304026513    9    7    5    1
 0.02375520202378903    9    7    5    3
 0.01319198460443945    9    7    6    1
 0.0453363135647207    9    7    6    3
 -0.01461109666328471    9    7    7    2
 -0.04985901493563711    9    7    7    4
 0.07192625280550635    9    7    9    7
 0.01319198460443946    9    8    5    1
 0.04533631356472073    9    8    5    3
 -0.006912301304026511    9    8    6    1
 -0.02375520202378903    9    8    6    3
 -0.01461109666328472    9    8    8    2
 -0.04985901493563715    9    8    8    4
 0.07192625280550641    9    8    9    8
 -3.839184411536051    9    9    1    1
 -3.839196182775337    9    9    2    2
 -0.002461564606767769    9    9    3    1
 -1.269789837372871    9    9    3    3
 -0.000730085505634803    9    9    4    2
 -1.280000137546771    9    9    4    4
 -1.118119501112455    9    9    5    5
 -1.118119501112453    9    9    6    6
 -1.124088735470018    9    9    7    7
 -1.124088735470019    9    9    8    8
 -0.02491628582678684    9    9    9    2
 -0.01916623044332634    9    9    9    4
 -0.9745795108730383    9    9    9    9
 0.1627161764300597   10    1    1    1
 0.1627190953050282   10    1    2    2
 -0.009716763501721078   10    1    3    1
 0.02152407807362942   10    1    3    3
 -0.01039366250861991   10    1    4    2
 0.01789091122932599   10    1    4    4
 -0.004793984520291525   10    1    5    5
 -0.004793984520291529   10    1    6    6
 -0.00447351219600254   10    1    7    7
 -0.004473512196002554   10    1    8    8
 0.02723550358691135   10    1    9    2
 0.009947107143741632   10    1    9    4
 -0.02551470783698812   10    1    9    9
 0.02751623502901093   10    1   10    1
 0.16695328820345   10    2    2    1
 -0.009782961298814974   10    2    3    2
 -0.01048155431418046   10    2    4    1
 0.02194484322964056   10    2    4    3
 6.677591022850709e-05   10    2    7    5
 0.0001274404486923556   10    2    7    6
 0.0001274404486923547   10    2    8    5
 -6.677591022850522e-05   10    2    8    6
 0.02712501093250056   10    2    9    1
 0.007974996032377109   10    2    9    3
 0.027397125340047   10    2   10    2
 0.05497260887416295   10    3    1    1
 0.05499278388831699   10    3    2    2
 0.00842511232907745   10    3    3    1
 0.1038899549844736   10    3    3    3
 0.006994922621539279   10    3    4    2
 0.1028345771796297   10    3    4    4
 0.02263254789426385   10    3    5    5
 0.02263254789426383   10    3    6    6
 0.02474491841870852   10    3    7    7
 0.02474491841870859   10    3    8    8
 0.008839231639698278   10    3    9    2
 0.04249122690732011   10    3    9    4
 0.0002224284080073042   10    3    9    9
 0.009274714131007509   10    3   10    1
 0.03910593801740324   10    3   10    3
 -0.02406807777345242   10    4    2    1
 0.008586514179117927   10    4    3    2
 0.007097182943804836   10    4    4    1
 0.03391192155411201   10    4    4    3
 0.01601674056698471   10    4    7    5
 0.03056761933249092   10    4    7    6
 0.03056761933249099   10    4    8    5
 -0.01601674056698475   10    4    8    6
 0.008654102578893406   10    4    9    1
 0.03343056260134502   10    4    9    3
 0.009092268475598827   10    4   10    2
 0.034965581934204   10    4   10    4
 -0.01500215781805918   10    5    5    1
 -0.0527861571862567   10    5    5    3
 0.006830431368449481   10    5    7    2
 0.0240711467688247   10    5    7    4
 0.01303573751939565   10    5    8    2
 0.04593928760029065   10    5    8    4
 -0.03406347734321875   10    5    9    7
 -0.06500944460040431   10    5    9    8
 0.07508456459638094   10    5   10    5
 -0.01500215781805916   10    6    6    1
 -0.05278615718625665   10    6    6    3
 0.01303573751939564   10    6    7    2
 0.0459392876002906   10    6    7    4
 -0.006830431368449475   10    6    8    2
 -0.02407114676882471   10    6    8    4
 -0.06500944460040425   10    6    9    7
 0.03406347734321875   10    6    9    8
 0.07508456459638087   10    6   10    6
 0.006675496494578955   10    7    5    2
 0.02175648066825963   10    7    5    4
 0.01274004750518863   10    7    6    2
 0.04152179504317578   10    7    6    4
 -0.01408211144338536   10    7    7    1
 -0.04689936675459559   10    7    7    3
 -0.03350622101414883   10    7    9    5
 -0.06394593237915103   10    7    9    6
 0.07071471266570899   10    7   10    7
 0.01274004750518863   10    8    5    2
 0.0415217950431758   10    8    5    4
 -0.006675496494578952   10    8    6    2
 -0.02175648066825963   10    8    6    4
 -0.01408211144338537   10    8    8    1
 -0.0468993667545956   10    8    8    3
 -0.06394593237915108   10    8    9    5
 0.03350622101414882   10    8    9    6
 0.07071471266570901   10    8   10    8
 0.7535559007476592   10    9    2    1
 -0.0216413317038086   10    9    3    2
 -0.01843578230532609   10    9    4    1
 0.3467388466578767   10    9    4    3
 -0.2232057262275856   10    9    7    5
 -0.4259835291470594   10    9    7    6
 -0.4259835291470597   10    9    8    5
 0.2232057262275855   10    9    8    6
 -0.0196900556936883   10    9    9    1
 -0.03575841606275058   10    9    9    3
 -0.0205135755857077   10    9   10    2
 -0.06422437099957962   10    9   10    4
 0.6715583046246472   10    9   10    9
 -3.82810261858027   10   10    1    1
 -3.828116313669455   10   10    2    2
 -0.003250917161219259   10   10    3    1
 -1.275439515781078   10   10    3    3
 -0.001379391241063234   10   10    4    2
 -1.288267255473701   10   10    4    4
 -1.116170765755127   10   10    5    5
 -1.116170765755126   10   10    6    6
 -1.122724304400565   10   10    7    7
 -1.122724304400566   10   10    8    8
 -0.02570020664063898   10   10    9    2
 -0.02377749741216564   10   10    9    4
 -0.9644942727113377   10   10    9    9
 -0.02634577431926527   10   10   10    1
 -0.002390710858577297   10   10   10    3
 -0.9533463126391398   10   10   10   10
 0.280016141235015    1    1  0  0
 0.2797299546469662    2    2  0  0
 -0.2094823084768173    3    1  0  0
 0.06200638096042602    3    3  0  0
 -0.1927363243739306    4    2  0  0
 0.02833455801670221    4    4  0  0
 0.01257490836115585    5    5  0  0
 0.01257490836115616    6    6  0  0
 0.005387287035418437    7    7  0  0
 0.005387287035417694    8    8  0  0
 0.125428818299376    9    2  0  0
 -0.07254905011913559    9    4  0  0
 0.0626594766083669    9    9  0  0
 0.1204936956852747   10    1  0  0
 -0.05960901153249144   10    3  0  0
 0.06939771341517614   10   10  0  0
 11.78621969776364  0  0  0  0
