 &FCI NORB=   4,NELEC= 4,MS2=0,
  ORBSYM=1,1,1,1,
  ISYM=1,
 &END
 0.1594073473111652    1    1    1    1
 -0.3570603951607102    2    1    1    1
 0.0203666534359133    2    1    2    1
 -0.113354989822691    2    2    1    1
 -0.2637630372470021    2    2    2    1
 1.081514204932761    2    2    2    2
 0.08265633904899086    3    1    1    1
 0.04095245844529643    3    1    2    1
 0.07444010296405909    3    1    2    2
 0.200454282555301    3    1    3    1
 0.2452895436242098    3    2    1    1
 0.002060463407355875    3    2    2    1
 -0.005202459017179936    3    2    2    2
 0.02450231855683433    3    2    3    1
 0.07520456244066585    3    2    3    2
 0.1250507353694649    3    3    1    1
 -0.2824336818806154    3    3    2    1
 0.2258303961108132    3    3    2    2
 0.05611079117245992    3    3    3    1
 0.3049240819963807    3    3    3    2
 0.7234744114007832    3    3    3    3
 0.3149668256085013    4    1    1    1
 -0.05672208069031833    4    1    2    1
 0.07778357073847429    4    1    2    2
 0.01735422622243001    4    1    3    1
 -0.05910653101262842    4    1    3    2
 -0.1771210139163054    4    1    3    3
 0.3850206925830332    4    1    4    1
 -0.04555475513850905    4    2    1    1
 -0.00259570870212579    4    2    2    1
 0.1365498670527661    4    2    2    2
 -0.05910653101262845    4    2    3    1
 -0.04262920750186044    4    2    3    2
 -0.01267715949455553    4    2    3    3
 -0.01755088702402109    4    2    4    1
 0.04022231678803923    4    2    4    2
 0.0387915679582489    4    3    1    1
 -0.05910653101262847    4    3    2    1
 -0.02119186576604154    4    3    2    2
 -0.2575002933569056    4    3    3    1
 -0.02384448504636475    4    3    3    2
 0.03650146604634813    4    3    3    3
 0.003931685484599805    4    3    4    1
 0.06800008893332975    4    3    4    2
 0.3348106733461666    4    3    4    3
 -0.01560514108711392    4    4    1    1
 -0.3244868874614705    4    4    2    1
 -0.1343741360261247    4    4    2    2
 0.076311325041303    4    4    3    1
 0.2723371741122431    4    4    3    2
 0.2185323166047708    4    4    3    3
 0.1058877353317301    4    4    4    1
 -0.03364865021246449    4    4    4    2
 0.03164819870472027    4    4    4    3
 -0.07655432594294578    4    4    4    4
 0.3826244879427063    1    1  0  0
 -0.3069360004374495    2    1  0  0
 0.6086538687986895    2    2  0  0
 0.07237963955670323    3    1  0  0
 0.2043370851789135    3    2  0  0
 0.6669719648714583    3    3  0  0
 0.08037927944060005    4    1  0  0
 0.01116732555180925    4    2  0  0
 0.02143734173581898    4    3  0  0
 0.3417496783871466    4    4  0  0
 11.78621969776364  0  0  0  0
