 &FCI NORB=  10,NELEC=14,MS2=0,
  ORBSYM=1,1,1,1,1,1,1,1,1,1,
  ISYM=1,
 &END
 -0.610455015118772    1    1    1    1
 0.07485271151944796    2    1    2    1
 -0.5793911774577978    2    2    1    1
 -0.5110839716494121    2    2    2    2
 0.03925343229514577    3    1    1    1
 0.04271808627164024    3    1    2    2
 0.0326723846264298    3    1    3    1
 0.01451650885573055    3    2    2    1
 0.01126944775266029    3    2    3    2
 -1.932044957013802    3    3    1    1
 -7.144210594663988e-08    3    3    2    1
 -1.907411486650011    3    3    2    2
 -0.1584616522530251    3    3    3    1
 5.575128518949528e-08    3    3    3    2
 -1.812067794251939    3    3    3    3
 -2.696390444248072e-08    4    1    1    1
 0.001347427111753263    4    1    2    1
 -2.95984133157832e-08    4    1    2    2
 -0.004622835820783094    4    1    3    2
 -1.724167062792051e-07    4    1    3    3
 0.03269628315289449    4    1    4    1
 -0.005554801086010423    4    2    1    1
 -1.006167243171557e-08    4    2    2    1
 -0.01052534215007652    4    2    2    2
 -0.004623341932183695    4    2    3    1
 0.02251901809619925    4    2    3    3
 0.01130663879418674    4    2    4    2
 -0.05244254389771041    4    3    2    1
 -1.387053239414455e-07    4    3    3    1
 0.02948751770398426    4    3    3    2
 2.652731259100511e-06    4    3    3    3
 -0.2072026065764083    4    3    4    1
 -1.972831109459447e-08    4    3    4    2
 1.947740131345782    4    3    4    3
 -1.932096668826559    4    4    1    1
 7.139156120945923e-08    4    4    2    1
 -1.907485294716195    4    4    2    2
 -0.1585375115699379    4    4    3    1
 -2.455346307071737e-08    4    4    3    2
 -1.811661839378746    4    4    3    3
 3.919776441667187e-07    4    4    4    1
 0.02253076680201152    4    4    4    2
 -2.652177784228423e-06    4    4    4    3
 -1.811255533455336    4    4    4    4
 0.02093027654000981    5    1    2    1
 -0.003514839404001828    5    1    3    2
 -4.788711690077458e-07    5    1    3    3
 0.009032182629371718    5    1    4    1
 -0.351537110914024    5    1    4    3
 4.785830238222961e-07    5    1    4    4
 0.2120318448912392    5    1    5    1
 -0.006138537304843576    5    2    1    1
 0.01160482801074979    5    2    2    2
 -0.000492288002002627    5    2    3    1
 -0.005464378497146294    5    2    3    3
 -0.01436840807017523    5    2    4    2
 -0.005464431138465502    5    2    4    4
 0.07047888105210361    5    2    5    2
 -2.604368338020669e-08    5    3    1    1
 -0.003514839404001848    5    3    2    1
 -2.799989099807665e-08    5    3    2    2
 -4.223134610730829e-08    5    3    3    1
 0.002839559472771614    5    3    3    2
 3.738743347975904e-07    5    3    3    3
 -0.03098816777152762    5    3    4    1
 0.1976631187438895    5    3    4    3
 -1.644308871571629e-07    5    3    4    4
 -0.00852010140884508    5    3    5    1
 0.02988020556505031    5    3    5    3
 -0.03723539287657391    5    4    1    1
 -0.04038645319552219    5    4    2    2
 -0.03099156037849029    5    4    3    1
 0.1509513073507502    5    4    3    3
 4.217333195067444e-08    5    4    4    1
 0.002837328151624061    5    4    4    2
 -1.32038075595335e-07    5    4    4    3
 0.1510300622278256    5    4    4    4
 0.00254615770425486    5    4    5    2
 0.02990277230380119    5    4    5    4
 -0.6196237671246922    5    5    1    1
 -0.5875336092463671    5    5    2    2
 0.03949158129188248    5    5    3    1
 -1.94322557182089    5    5    3    3
 -2.758214314345388e-08    5    5    4    1
 -0.001335231859626202    5    5    4    2
 -1.943299724903566    5    5    4    4
 -0.02624865116904658    5    5    5    2
 -2.690651852238399e-08    5    5    5    3
 -0.03911830784897271    5    5    5    4
 -0.6070610585390617    5    5    5    5
 0.07173031871321832    6    1    6    1
 0.02155069272785151    6    2    6    2
 0.01504085497457558    6    3    6    1
 0.01084584035054618    6    3    6    3
 -1.042297477085955e-08    6    4    6    1
 -0.002250231877549134    6    4    6    2
 0.01088336426207013    6    4    6    4
 0.0081607394134122    6    5    6    2
 -1.045593751715222e-08    6    5    6    3
 -0.015083936711064    6    5    6    4
 0.07503699799787157    6    5    6    5
 -0.5784754263120937    6    6    1    1
 -0.5559165731943545    6    6    2    2
 0.04279152612863918    6    6    3    1
 -1.906596306971071    6    6    3    3
 -2.964445116606584e-08    6    6    4    1
 -0.006131621441430201    6    6    4    2
 -1.906670107184188    6    6    4    4
 -0.003855051619632522    6    6    5    2
 -2.850074056926102e-08    6    6    5    3
 -0.04110198183641099    6    6    5    4
 -0.5811829684698211    6    6    5    5
 -0.514674937778586    6    6    6    6
 0.02208616458728772    7    1    2    2
 -1.027818392329997e-08    7    1    3    2
 -0.01534884986762968    7    1    4    2
 0.07237746982939416    7    1    5    2
 0.0022897518013664    7    1    5    4
 -0.02208616458728744    7    1    5    5
 -0.002379869773894152    7    1    6    2
 0.003307796256307197    7    1    6    4
 -0.01595293703917245    7    1    6    5
 0.07978737326610882    7    1    7    1
 0.04225944778505727    7    2    2    1
 0.001256979323019154    7    2    3    2
 -4.820611620885487e-07    7    2    3    3
 0.005710890505559429    7    2    4    1
 -0.35398435211798    7    2    4    3
 4.820586645780254e-07    7    2    4    4
 0.2150259374485359    7    2    5    1
 -0.005955623025735201    7    2    5    3
 -0.002146471898507551    7    2    6    1
 -0.0004522938953789138    7    2    6    3
 0.2514456296333994    7    2    7    2
 0.004452751572866056    7    3    2    2
 -1.459591597085517e-08    7    3    3    2
 -0.01075367905360306    7    3    4    2
 0.014591890382289    7    3    5    2
 0.001604241112308579    7    3    5    4
 -0.004452751572865874    7    3    5    5
 -0.0004798012309883166    7    3    6    2
 0.002317501286533239    7    3    6    4
 -0.003216242693503999    7    3    6    5
 0.01623140370187294    7    3    7    1
 0.01135558985355671    7    3    7    3
 -0.01474945533155975    7    4    2    1
 -0.01068221040522876    7    4    3    2
 1.459575324775919e-08    7    4    4    2
 0.002200333719195334    7    4    5    1
 0.001593579371020627    7    4    5    3
 0.003178622082374823    7    4    6    1
 0.002302099238199023    7    4    6    3
 -1.123999053499394e-08    7    4    7    1
 -0.002198506758787749    7    4    7    2
 0.0112440088937063    7    4    7    4
 0.06194672523191103    7    5    2    1
 0.01419399168122852    7    5    3    2
 7.19142097960518e-08    7    5    3    3
 -0.0008519545070337155    7    5    4    1
 0.05280762499521627    7    5    4    3
 -7.191383783730068e-08    7    5    4    4
 -0.04225944778505669    7    5    5    1
 -0.001256979323019109    7    5    5    3
 -0.0143884119387525    7    5    6    1
 -0.003031853220220796    7    5    6    3
 -0.02729948955054065    7    5    7    2
 -1.022395726520028e-08    7    5    7    3
 -0.01473720870247379    7    5    7    4
 0.07252203486498815    7    5    7    5
 -0.006960765743930097    7    6    2    1
 0.0001814051476704973    7    6    3    2
 1.038879475505494e-07    7    6    3    3
 -0.001230741221484569    7    6    4    1
 0.07628637486360446    7    6    4    3
 -1.03887356826154e-07    7    6    4    4
 -0.04665997048258737    7    6    5    1
 0.001216009462043441    7    6    5    3
 -0.04957034726654846    7    6    7    2
 0.007394938069001686    7    6    7    5
 0.03106546104367408    7    6    7    6
 -0.5764860279894216    7    7    1    1
 -0.515757207332707    7    7    2    2
 0.04259524036151448    7    7    3    1
 -1.900550766255274    7    7    3    3
 -2.950371158446507e-08    7    7    4    1
 -0.006094773844095256    7    7    4    2
 -1.90062331266932    7    7    4    4
 -0.00977082432161386    7    7    5    2
 -2.833417971082225e-08    7    7    5    3
 -0.04085498203532362    7    7    5    4
 -0.5797961707073589    7    7    5    5
 -0.008365779233820269    7    7    6    2
 0.001248012647628497    7    7    6    5
 -0.5521795324898291    7    7    6    6
 -0.5099903028186342    7    7    7    7
 0.02017916681600382    8    1    1    1
 0.0006735303809512927    8    1    2    2
 0.002327180364167072    8    1    3    1
 -0.005532449685594062    8    1    3    3
 4.905690635758943e-05    8    1    4    2
 -0.005477589770334994    8    1    4    4
 -0.001932810403078367    8    1    5    2
 0.0003288422309377367    8    1    5    4
 -0.01199430301148057    8    1    5    5
 0.0009618683437507668    8    1    6    6
 0.003086999769139592    8    1    7    7
 0.078117216776329    8    1    8    1
 -0.007801680763039495    8    2    2    1
 -0.0021227058603296    8    2    3    2
 1.20851056072759e-08    8    2    3    3
 -0.0004777761469929388    8    2    4    1
 0.008867490652178595    8    2    4    3
 -1.2066683226988e-08    8    2    4    4
 -0.002907766411546038    8    2    5    1
 0.000415085062857218    8    2    5    3
 -0.005906724980642246    8    2    7    2
 0.002104214506183963    8    2    7    4
 -0.009490978457879851    8    2    7    5
 0.000946744595498531    8    2    7    6
 0.02313065743762351    8    2    8    2
 -0.002824008342054145    8    3    1    1
 -0.006954653412123797    8    3    2    2
 -0.004034359844846323    8    3    3    1
 0.02417122879691457    8    3    3    3
 0.0008449353537867062    8    3    4    2
 2.357625492582972e-08    8    3    4    3
 0.02422741632499024    8    3    4    4
 -0.0003620600377780759    8    3    5    2
 0.005663839148586725    8    3    5    4
 -0.009327631242399071    8    3    5    5
 -0.006900641050881459    8    3    6    6
 -0.00655137699633245    8    3    7    7
 0.01677935691001066    8    3    8    1
 0.0131014273549134    8    3    8    3
 -0.0005728185899703511    8    4    2    1
 0.000847511053988853    8    4    3    2
 3.061619311095697e-08    8    4    3    3
 -0.004045967176971136    8    4    4    1
 0.0345665313777969    8    4    4    3
 -6.35682586962537e-08    8    4    4    4
 -0.003839764001318204    8    4    5    1
 0.005681104790951616    8    4    5    3
 -0.002979733257932642    8    4    7    2
 0.0004445186221628163    8    4    7    5
 0.0006421556403499931    8    4    7    6
 -1.161096557380368e-08    8    4    8    1
 -0.002210812377271816    8    4    8    2
 0.01292910026662811    8    4    8    4
 -0.002907766411547303    8    5    2    1
 0.00041508506285738    8    5    3    2
 8.101536100857494e-08    8    5    3    3
 -0.003202667794017535    8    5    4    1
 0.05944128208206766    8    5    4    3
 -8.088092212406068e-08    8    5    4    4
 -0.02685947369861032    8    5    5    1
 0.0005978033068325283    8    5    5    3
 -0.0292222899674737    8    5    7    2
 -0.000313908142795595    8    5    7    4
 0.005906724980644064    8    5    7    5
 0.006346293065643882    8    5    7    6
 0.00730113827205834    8    5    8    2
 -1.028971541711029e-08    8    5    8    3
 -0.01481969672171114    8    5    8    4
 0.07098305054260963    8    5    8    5
 -0.007367898203681013    8    6    6    1
 -0.002184628530666111    8    6    6    3
 0.0003262042247297116    8    6    7    2
 -0.0004534745551653177    8    6    7    4
 0.002186614948892783    8    6    7    5
 0.02204146869353872    8    6    8    6
 -0.003906558589131181    8    7    2    2
 0.002314235740706362    8    7    4    2
 -0.01280198856185156    8    7    5    2
 -0.0003452392525673482    8    7    5    4
 0.003906558589131488    8    7    5    5
 0.0004209471663782054    8    7    6    2
 -0.0004987357610074131    8    7    6    4
 0.002821724968059098    8    7    6    5
 -0.009351445649449057    8    7    7    1
 -0.002456954734167172    8    7    7    3
 0.02343421723865557    8    7    8    7
 -0.579600314205216    8    8    1    1
 -0.5522014013936318    8    8    2    2
 0.04146856834634785    8    8    3    1
 -1.886021524575402    8    8    3    3
 -2.873413791534617e-08    8    8    4    1
 -0.006049349325894611    8    8    4    2
 -1.886106243136048    8    8    4    4
 -0.003218615218176037    8    8    5    2
 -2.811208594583015e-08    8    8    5    3
 -0.04055048872309888    8    8    5    4
 -0.5732965286100644    8    8    5    5
 -0.55172124619912    8    8    6    6
 -0.5510980670730732    8    8    7    7
 -0.01061877347908509    8    8    8    1
 -0.01105772246679743    8    8    8    3
 -0.5015766448436104    8    8    8    8
 0.009879374324275539    9    1    2    1
 0.000981383861792151    9    1    2    2
 -0.0004106282833059444    9    1    3    2
 -1.315721149999826e-07    9    1    3    3
 0.0003918361240749046    9    1    4    1
 -0.0006820155803765513    9    1    4    2
 -0.09665770408889125    9    1    4    3
 1.316876597694973e-07    9    1    4    4
 0.06622422220270936    9    1    5    1
 0.003216044134792928    9    1    5    2
 -0.002752553662021331    9    1    5    3
 0.0001017454796590886    9    1    5    4
 -0.0009813857474505697    9    1    5    5
 0.002327583259580542    9    1    6    2
 -0.003235122668209356    9    1    6    4
 0.01560244469745232    9    1    6    5
 0.06458235669269519    9    1    7    2
 -0.009634439399463188    9    1    7    5
 -0.01391799903106815    9    1    7    6
 0.008231158095632039    9    1    8    2
 -1.042539212777149e-08    9    1    8    3
 -0.0155979625379331    9    1    8    4
 0.05517576614985552    9    1    8    5
 0.08520884761105951    9    1    9    1
 0.002346825419594879    9    2    1    1
 0.001877770284821968    9    2    2    1
 0.001262620682514275    9    2    2    2
 9.204371702772598e-05    9    2    3    1
 5.585194926747355e-05    9    2    3    2
 0.0006959066377982133    9    2    3    3
 0.0002537595348248211    9    2    4    1
 -0.001594138558923345    9    2    4    2
 -0.01572905741947662    9    2    4    3
 0.0007039723509939211    9    2    4    4
 0.009554533324514242    9    2    5    1
 0.004027678937494572    9    2    5    2
 -0.0002646337639183972    9    2    5    3
 0.0005179183197446061    9    2    5    4
 -0.004029467461000262    9    2    5    5
 0.00209931418840655    9    2    6    1
 0.0004423568382284928    9    2    6    3
 -2.813226058621206e-05    9    2    6    6
 0.009209629199852938    9    2    7    1
 0.01022063034300522    9    2    7    2
 0.001649510011034973    9    2    7    3
 -0.001524720655996686    9    2    7    5
 0.001999961951583981    9    2    7    6
 0.0003860875703005126    9    2    7    7
 0.01125287715606861    9    2    8    1
 -0.0002624614082305833    9    2    8    2
 0.002371272428024867    9    2    8    3
 -0.0001324040403363302    9    2    8    4
 -0.001298473106652152    9    2    8    5
 -0.0003190338595801574    9    2    8    6
 0.01884383613742408    9    2    8    7
 -0.00318749564923908    9    2    8    8
 0.003278897391661234    9    2    9    1
 0.02310885375893407    9    2    9    2
 0.0001331265219580002    9    3    2    1
 0.0001978519571520348    9    3    2    2
 0.0004510860735324249    9    3    3    2
 4.498237360126658e-08    9    3    3    3
 -0.004884156276855633    9    3    4    1
 -0.0004778325180065439    9    3    4    2
 0.02321049545463187    9    3    4    3
 -1.8254238147309e-08    9    3    4    4
 0.0008923874944508602    9    3    5    1
 0.0006483811815333978    9    3    5    2
 0.003023761174484853    9    3    5    3
 7.128343603394548e-05    9    3    5    4
 -0.0001978561034885817    9    3    5    5
 0.0004692598374861565    9    3    6    2
 -0.002266584869419329    9    3    6    4
 0.003145580568995188    9    3    6    5
 0.001034887065991886    9    3    7    2
 -0.0001543851018253535    9    3    7    5
 -0.0002230261920452421    9    3    7    6
 -1.025680886567442e-08    9    3    8    1
 0.002061142172151307    9    3    8    2
 -1.39889106004442e-08    9    3    8    3
 -0.01019682837400342    9    3    8    4
 0.01381641483513521    9    3    8    5
 0.01420658017717315    9    3    9    1
 0.0001192778442544851    9    3    9    2
 0.01061075959172538    9    3    9    3
 -0.007230573077576824    9    4    1    1
 -0.0006553822487556278    9    4    2    1
 -0.004519974827355002    9    4    2    2
 -0.004870525270840717    9    4    3    1
 -0.0004746568565099154    9    4    3    2
 0.0196527003485788    9    4    3    3
 0.0004509799659631738    9    4    4    2
 -1.583436339657137e-08    9    4    4    3
 0.01962337215541545    9    4    4    4
 9.77698177663622e-05    9    4    5    1
 0.0004541914188128478    9    4    5    2
 7.080968853387178e-05    9    4    5    3
 0.003023041017218503    9    4    5    4
 -0.00154315557012025    9    4    5    5
 -0.003108786501814898    9    4    6    1
 -0.002251521210160449    9    4    6    3
 -0.004587731342463179    9    4    6    6
 -0.004858516333749824    9    4    7    7
 -0.01531278561391075    9    4    8    1
 9.349798395424747e-05    9    4    8    2
 -0.01034712775216943    9    4    8    3
 1.398811530826187e-08    9    4    8    4
 -1.395752120331318e-05    9    4    8    5
 0.0004435115403721211    9    4    8    6
 -0.0005905955045236012    9    4    8    8
 -0.00220647172382871    9    4    9    2
 0.010727285054484    9    4    9    4
 0.01573142875040149    9    5    1    1
 0.00275256105796807    9    5    2    1
 -0.0007855003121652215    9    5    2    2
 0.0006169937416011352    9    5    3    1
 0.0006307008695283061    9    5    3    2
 0.004665004560245991    9    5    3    3
 -3.785642901547959e-05    9    5    4    1
 0.0005179177216187243    9    5    4    2
 0.002346472627987417    9    5    4    3
 0.004718777743105806    9    5    4    4
 -0.001877771455600877    9    5    5    1
 -0.003311433962730544    9    5    5    2
 -5.585178295126583e-05    9    5    5    3
 0.001800349010775539    9    5    5    4
 -0.01776144962116985    9    5    5    5
 0.01407229268708145    9    5    6    1
 0.002965242206739689    9    5    6    3
 -0.00018857843477131    9    5    6    6
 -0.001373898445821654    9    5    7    1
 -0.00152472132914604    9    5    7    2
 -0.0002460749652758186    9    5    7    3
 0.0002274589753431009    9    5    7    5
 -0.000298355507260183    9    5    7    6
 0.002588052534139322    9    5    7    7
 0.07543119834967026    9    5    8    1
 -0.0004217254930858247    9    5    8    2
 0.01589530615752356    9    5    8    3
 1.974125194245679e-05    9    5    8    4
 0.0002624597931221225    9    5    8    5
 -0.002138574682793076    9    5    8    6
 -0.002811136263153359    9    5    8    7
 -0.02136667920842915    9    5    8    8
 -0.0004891486809293599    9    5    9    1
 0.008704056683194608    9    5    9    2
 -1.780452416616807e-05    9    5    9    3
 -0.01479059954514754    9    5    9    4
 0.08015611522413933    9    5    9    5
 0.006807835178001516    9    6    2    1
 -0.0001774195710379098    9    6    3    2
 -1.017211041194653e-07    9    6    3    3
 0.001203701351536488    9    6    4    1
 -0.07461033312622448    9    6    4    3
 1.014895051921507e-07    9    6    4    4
 0.04563483250171597    9    6    5    1
 -0.001189293259732386    9    6    5    3
 0.0006899010817562274    9    6    6    2
 -0.001671401900329281    9    6    6    4
 0.004624600837089787    9    6    6    5
 -0.001984746559508557    9    6    7    1
 0.04427868010680423    9    6    7    2
 -0.0003554822061900348    9    6    7    3
 -0.006605523413444018    9    6    7    5
 -0.01044808930736515    9    6    7    6
 -0.0009259439376211342    9    6    8    2
 -0.0006280472277133657    9    6    8    4
 -0.006206862550107792    9    6    8    5
 -0.004060992920649324    9    6    8    7
 0.01555335599205566    9    6    9    1
 0.002154232612163704    9    6    9    2
 0.0005657983406055212    9    6    9    3
 -0.0003213700492668289    9    6    9    5
 0.03156466351792062    9    6    9    6
 0.01160096373084166    9    7    2    1
 0.001724892823527903    9    7    2    2
 0.001950234038589174    9    7    3    2
 -0.001730638837417467    9    7    5    1
 -0.0002573208173226702    9    7    5    2
 -0.0002909372527476682    9    7    5    3
 3.838731434466565e-05    9    7    5    5
 -0.002500097685792174    9    7    6    1
 0.003905125991348804    9    7    6    2
 -0.0004202905701185239    9    7    6    3
 -0.0005825693057304903    9    7    6    5
 -0.001763280134421752    9    7    6    6
 0.001259377780459348    9    7    7    2
 -0.002079998441218406    9    7    7    4
 0.008441957686842921    9    7    7    5
 0.01753226333017821    9    7    8    2
 -0.002615475003558531    9    7    8    5
 -0.003778338804486637    9    7    8    6
 0.02054242071760948    9    7    9    7
 0.03097921401674253    9    8    2    1
 -0.0001735855026693692    9    8    2    2
 -0.0008293883475017347    9    8    3    2
 -4.687903946798639e-07    9    8    3    3
 0.005601932943352267    9    8    4    1
 0.0001028320705066032    9    8    4    2
 -0.3442379384278148    9    8    4    3
 4.687838823571224e-07    9    8    4    4
 0.2076623784238599    9    8    5    1
 -0.0005688484903878621    9    8    5    2
 -0.00555962367576782    9    8    5    3
 -1.533675695839494e-05    9    8    5    4
 0.0001735803026990158    9    8    5    5
 -0.0004116984543805507    9    8    6    2
 0.0004877783396736935    9    8    6    4
 -0.002759730608074968    9    8    6    5
 0.2028595129090177    9    8    7    2
 -0.03026271933543541    9    8    7    5
 -0.04371779925930911    9    8    7    6
 -0.004072982610637422    9    8    8    2
 -0.003206566294142033    9    8    8    4
 -0.02730234716696067    9    8    8    5
 0.06828352719530169    9    8    9    1
 0.009851239716219158    9    8    9    2
 0.001062261621963608    9    8    9    3
 -0.001469615344666956    9    8    9    5
 0.04672907327538682    9    8    9    6
 0.2329034228162455    9    8    9    8
 -0.5790307624618357    9    9    1    1
 0.001030961857362107    9    9    2    1
 -0.5579422347083212    9    9    2    2
 0.04318631805516632    9    9    3    1
 0.0001733104441510225    9    9    3    2
 -1.913137078469353    9    9    3    3
 -2.995225771830513e-08    9    9    4    1
 -0.00613480642023923    9    9    4    2
 -1.913198464848857    9    9    4    4
 -0.0001538011983966349    9    9    5    1
 -0.003785321684700896    9    9    5    2
 -2.588368395552627e-05    9    9    5    3
 -0.04112333083543256    9    9    5    4
 -0.5827516129061368    9    9    5    5
 0.004890339106379084    9    9    6    1
 0.0003635607729915728    9    9    6    2
 0.0008221132411230955    9    9    6    3
 -5.423636830487313e-05    9    9    6    5
 -0.55573134785555    9    9    6    6
 -0.5566530223629802    9    9    7    7
 0.01829918196139871    9    9    8    1
 0.00155806875813968    9    9    8    2
 -0.003875964309345395    9    9    8    3
 -0.0002324337591837209    9    9    8    5
 0.007390654422116815    9    9    8    6
 -0.5178460625913602    9    9    8    8
 0.000849007877631637    9    9    9    2
 -0.007447787626682413    9    9    9    4
 0.005691138955135106    9    9    9    5
 -0.515942260456642    9    9    9    9
 0.002105778473007725   10    1    2    1
 -0.004604215316228111   10    1    2    2
 -8.752277176601678e-05   10    1    3    2
 -2.804446571722136e-08   10    1    3    3
 8.351948130591705e-05   10    1    4    1
 0.003199714032540809   10    1    4    2
 -0.0206024938702061   10    1    4    3
 2.806909446267297e-08   10    1    4    4
 0.01411562741367186   10    1    5    1
 -0.01508824467846337   10    1    5    2
 -0.0005867044201956043   10    1    5    3
 -0.0004773350905787138   10    1    5    4
 0.004604214914303275   10    1    5    5
 -0.01091998159062645   10    1    6    2
 1.016041839246856e-08   10    1    6    3
 0.01517775137800505   10    1    6    4
 -0.07319970548284098   10    1    6    5
 0.01376566534880669   10    1    7    2
 -0.002053571212864732   10    1    7    5
 -0.002966607702154758   10    1    7    6
 0.001754463219710132   10    1    8    2
 -0.003324690260702426   10    1    8    4
 0.01176065988206979   10    1    8    5
 0.001155581887455037   10    1    9    1
 -0.00130822664299036   10    1    9    2
 -0.0004315891280749448   10    1    9    3
 0.0001951633167253704   10    1    9    5
 -0.006205536346192625   10    1    9    6
 0.01654781754821968   10    1    9    8
 0.08003368440098636   10    1   10    1
 0.0005002223533971018   10    2    1    1
 -0.00880965978640808   10    2    2    1
 0.0002691264087764957   10    2    2    2
 1.961819483211026e-05   10    2    3    1
 -0.0002620377348890276   10    2    3    2
 0.0001484368692657268   10    2    3    3
 -0.001190526749388565   10    2    4    1
 -0.0003397888713084004   10    2    4    2
 0.07379371664652253   10    2    4    3
 0.0001499459504906454   10    2    4    4
 -0.04482560602124838   10    2    5    1
 0.0008584959859144963   10    2    5    2
 0.001241545232279019   10    2    5    3
 0.0001103929087538873   10    2    5    4
 -0.000858875874156092   10    2    5    5
 -0.00984904502132241   10    2    6    1
 -0.002075340813413849   10    2    6    3
 -5.996353011461469e-06   10    2    6    6
 0.001963023346631314   10    2    7    1
 -0.04795063559665513   10    2    7    2
 0.0003515914245438402   10    2    7    3
 0.007153308216487666   10    2    7    5
 -0.009382928568936777   10    2    7    6
 8.229416306049079e-05   10    2    7    7
 0.002398539695582185   10    2    8    1
 0.001231351565936982   10    2    8    2
 0.0005054348107408136   10    2    8    3
 0.0006211728581080715   10    2    8    4
 0.006091855062781719   10    2    8    5
 0.001496764454164048   10    2    8    6
 0.004016545002340484   10    2    8    7
 -0.0006794115497458503   10    2    8    8
 -0.0133760024570599   10    2    9    1
 -0.001869417272629382   10    2    9    2
 -0.0002001160475721545   10    2    9    3
 -1.697570951147773e-06   10    2    9    4
 0.0006924139728664131   10    2    9    5
 -0.01010669785288098   10    2    9    6
 -0.04211084718517562   10    2    9    8
 -0.0003559043681894278   10    2    9    9
 -0.003278897400943771   10    2   10    1
 0.03148086076976833   10    2   10    2
 2.837793508376152e-05   10    3    2    1
 -0.0009282481495830398   10    3    2    2
 9.615173062217253e-05   10    3    3    2
 -0.001041053071570769   10    3    4    1
 0.002241776904695847   10    3    4    2
 0.004947294109351848   10    3    4    3
 0.0001902111902009354   10    3    5    1
 -0.003041913559598021   10    3    5    2
 0.000644511223878204   10    3    5    3
 -0.000334429782074312   10    3    5    4
 0.0009282472657951039   10    3    5    5
 -0.002201557676409581   10    3    6    2
 1.443223416506958e-08   10    3    6    3
 0.01063380438808433   10    3    6    4
 -0.01475765982074133   10    3    6    5
 0.000220585152772505   10    3    7    2
 -3.290703138714811e-05   10    3    7    5
 -4.753781186154739e-05   10    3    7    6
 0.000439330099545018   10    3    8    2
 -0.002173443864971186   10    3    8    4
 0.002944955179486643   10    3    8    5
 -0.0004315891280550197   10    3    9    1
 -0.0003340652335844173   10    3    9    2
 -0.0001587598323368053   10    3    9    3
 4.983630834557867e-05   10    3    9    5
 -0.001584629005523468   10    3    9    6
 0.0007501174794936925   10    3    9    8
 0.01613941090685072   10    3   10    1
 -0.0001192808939050455   10    3   10    2
 0.01132175035259224   10    3   10    3
 -0.001541189488437411   10    4    1    1
 0.003074760548959905   10    4    2    1
 -0.000963427505931974   10    4    2    2
 -0.00103814763614189   10    4    3    1
 0.00222687811847846   10    4    3    2
 0.004188953607536265   10    4    3    3
 9.612275195218705e-05   10    4    4    2
 0.004182702332221677   10    4    4    4
 -0.0004586949747609454   10    4    5    1
 9.681257830954971e-05   10    4    5    2
 -0.0003322071711090062   10    4    5    3
 0.0006443586721499212   10    4    5    4
 -0.0003289227300258667   10    4    5    5
 0.01458503848262451   10    4    6    1
 0.01056313242336371   10    4    6    3
 -1.443370351274821e-08   10    4    6    4
 -0.0009778703901529744   10    4    6    6
 -0.00103558794275341   10    4    7    7
 -0.003263905081733783   10    4    8    1
 -0.0004386575621701476   10    4    8    2
 -0.002205480028511654   10    4    8    3
 6.543722199630468e-05   10    4    8    5
 -0.002080758160792635   10    4    8    6
 -0.0001258848466305726   10    4    8    8
 -1.697479487462059e-06   10    4    9    2
 -0.0001101391743635056   10    4    9    4
 -1.138024175404608e-05   10    4    9    5
 -0.0007007893396149372   10    4    9    9
 -1.127747434825437e-08   10    4   10    1
 -0.002198868542149763   10    4   10    2
 0.01122053283781592   10    4   10    4
 0.003353138628959809   10    5    1    1
 -0.01291378862763421   10    5    2    1
 -0.0001674285141404668   10    5    2    2
 0.0001315117293312122   10    5    3    1
 -0.002958965181788037   10    5    3    2
 0.0009943254272009765   10    5    3    3
 0.0001776034980497065   10    5    4    1
 0.0001103957148935022   10    5    4    2
 -0.0110085962876319   10    5    4    3
 0.001005818473327805   10    5    4    4
 0.008809659536857811   10    5    5    1
 -0.0007058285300558575   10    5    5    2
 0.000262037770339161   10    5    5    3
 0.0003837424251208476   10    5    5    4
 -0.003785835669018042   10    5    5    5
 -0.06602091531890321   10    5    6    1
 -0.01391159272935951   10    5    6    3
 -4.019530808735992e-05   10    5    6    6
 -0.0002928450930983675   10    5    7    1
 0.007153308073006555   10    5    7    2
 -5.245063493754235e-05   10    5    7    3
 -0.00106713533151335   10    5    7    5
 0.001399751664185754   10    5    7    6
 0.0005516408364129081   10    5    7    7
 0.01607808517938963   10    5    8    1