 &FCI NORB=   7,NELEC=10,MS2=0,
  ORBSYM=1,1,1,1,1,1,1,
  ISYM=1,
 &END
 -0.7238140562053548    1    1    1    1
 0.02991744330553894    2    1    2    1
 -0.8509239239156655    2    2    1    1
 -0.7051190555532655    2    2    2    2
 0.004918528882576295    3    1    2    1
 0.02601019808913687    3    1    3    1
 0.01068998517137613    3    2    1    1
 0.01564319266204192    3    2    2    2
 0.01388384471304453    3    2    3    2
 -3.198182581750873    3    3    1    1
 -3.378387149548269    3    3    2    2
 -0.06198188758569825    3    3    3    2
 -2.277612075219441    3    3    3    3
 0.01883847984997386    4    1    2    1
 0.03247709406660702    4    1    3    1
 0.1447795854225365    4    1    4    1
 0.002543100838530726    4    2    1    1
 -0.03862296336254236    4    2    2    2
 0.01718000540975516    4    2    3    2
 0.05178533971231494    4    2    3    3
 0.1350215948602388    4    2    4    2
 0.06070278369069589    4    3    1    1
 0.06748072276554859    4    3    2    2
 0.01141225096575013    4    3    3    2
 -0.3451560504069861    4    3    3    3
 -0.001996851334052886    4    3    4    2
 0.05841553801786645    4    3    4    3
 -0.886798409968266    4    4    1    1
 -0.8641697560292416    4    4    2    2
 0.01294659044618121    4    4    3    2
 -3.338393468617478    4    4    3    3
 -0.0009540388050925531    4    4    4    2
 0.05935735552640286    4    4    4    3
 -0.9354517539875009    4    4    4    4
 -0.02201727356995319    5    1    2    1
 0.02317928653149644    5    1    5    1
 -0.01251484554823484    5    2    1    1
 0.09912962543629399    5    2    2    2
 -0.0003791792215066431    5    2    3    2
 -0.1711161662912697    5    2    3    3
 -0.05259662450879794    5    2    4    2
 0.006930564842162246    5    2    4    3
 0.03798855233191874    5    2    4    4
 0.1530077573777812    5    2    5    2
 -0.002755419441120998    5    3    2    2
 -0.01395059814373818    5    3    3    2
 -0.02047873490098341    5    3    4    2
 0.003474223033281302    5    3    5    2
 0.0190664458388352    5    3    5    3
 -0.02282396858494868    5    4    2    2
 -0.01310347517297183    5    4    3    2
 -0.03847783924532149    5    4    4    2
 -0.004658551976547829    5    4    5    2
 0.01702875162729771    5    4    5    3
 0.06206919091723756    5    4    5    4
 -0.7956297951562732    5    5    1    1
 -0.6776600834009693    5    5    2    2
 0.01143499741074772    5    5    3    2
 -3.281685418230897    5    5    3    3
 -0.02856883850090877    5    5    4    2
 0.06411452003345823    5    5    4    3
 -0.8205825143483374    5    5    4    4
 0.0935615298600045    5    5    5    2
 -0.5987512200089811    5    5    5    5
 0.0003087909532518556    6    1    2    1
 -0.01415962720424908    6    1    3    1
 -0.05011898263354365    6    1    4    1
 0.05519272449785764    6    1    6    1
 0.002573736718561237    6    2    1    1
 -0.04365386288704112    6    2    2    2
 -0.00399735600070109    6    2    3    2
 0.04180028468885446    6    2    3    3
 0.02308314676389554    6    2    4    2
 -0.001117561669314724    6    2    4    3
 -0.007866368936625746    6    2    4    4
 -0.04716621906178421    6    2    5    2
 0.005060041058122178    6    2    5    3
 0.03551764016442915    6    2    5    4
 -0.02996688440198863    6    2    5    5
 0.0558326243456763    6    2    6    2
 -0.02752339966265164    6    3    1    1
 -0.02467590737358307    6    3    2    2
 0.0001702418491284363    6    3    3    2
 0.161258183865225    6    3    3    3
 0.00659312158079864    6    3    4    2
 -0.02425033837090108    6    3    4    3
 -0.0169773918494924    6    3    4    4
 0.0006679878427437633    6    3    5    2
 -0.02839454083921778    6    3    5    5
 -0.0001168705829860165    6    3    6    2
 0.02703373311481447    6    3    6    3
 -0.02407426485666428    6    4    1    1
 0.06406461164861586    6    4    2    2
 0.007391390164432284    6    4    3    2
 -0.09218117259619787    6    4    3    3
 0.007349482860977431    6    4    4    2
 0.009509081716318115    6    4    4    3
 0.05154840493601465    6    4    4    4
 0.0807016148950192    6    4    5    2
 0.04646291396699145    6    4    5    5
 -0.01853053824281253    6    4    6    2
 0.0164175834870678    6    4    6    3
 0.1246503402107777    6    4    6    4
 -0.02909857364029758    6    5    2    2
 0.009388421314687641    6    5    3    2
 0.07547324260021741    6    5    4    2
 -0.0210232190508514    6    5    5    2
 -0.01264658678533242    6    5    5    3
 -0.0139158802925433    6    5    5    4
 0.003738218109506529    6    5    6    2
 0.07462365099648058    6    5    6    5
 -0.8323142459715479    6    6    1    1
 -0.8254624853282134    6    6    2    2
 0.006012189300844442    6    6    3    2
 -3.289326287290555    6    6    3    3
 -0.0258189758943178    6    6    4    2
 0.05958752221660171    6    6    4    3
 -0.9093924875313888    6    6    4    4
 0.03087798111026503    6    6    5    2
 -0.7519620039768808    6    6    5    5
 0.001892225712941618    6    6    6    2
 -0.042547321182289    6    6    6    3
 -0.04400741902468532    6    6    6    4
 -0.7372028059934747    6    6    6    6
 0.002701924905423242    7    1    2    1
 0.01328186064320702    7    1    3    1
 0.05087091487529445    7    1    4    1
 0.008153420584546413    7    1    5    1
 0.0008338506303167949    7    1    6    1
 0.03621307244903472    7    1    7    1
 0.01859261700627607    7    2    1    1
 0.04424536145582985    7    2    2    2
 0.003671068577146788    7    2    3    2
 0.03554487061556663    7    2    3    3
 -0.01726124259905624    7    2    4    2
 -0.0008774058619885333    7    2    4    3
 0.02125285215647278    7    2    4    4
 0.02903949485066743    7    2    5    2
 -0.003210137132466531    7    2    5    3
 -0.02659053208792196    7    2    5    4
 0.01663646611305274    7    2    5    5
 -0.01995525310051878    7    2    6    2
 0.004368154173458407    7    2    6    3
 0.0151740872409431    7    2    6    4
 -0.03390061431320298    7    2    6    5
 0.0177528695560238    7    2    6    6
 0.04518940671925144    7    2    7    2
 0.0288669430868113    7    3    1    1
 0.03520806010148118    7    3    2    2
 0.006078553706469566    7    3    3    2
 -0.1673741911392332    7    3    3    3
 -0.002609366244507689    7    3    4    2
 0.03081732985026234    7    3    4    3
 0.03496061814742897    7    3    4    4
 0.007172679242480867    7    3    5    2
 0.005166175262822557    7    3    5    3
 0.00485246930620004    7    3    5    4
 0.03087875372715664    7    3    5    5
 0.0003281451453759367    7    3    6    2
 0.0004597164253262671    7    3    6    3
 0.01995950750057084    7    3    6    4
 -0.003476713288789803    7    3    6    5
 0.01623515127404815    7    3    6    6
 0.001718002470022665    7    3    7    2
 0.02804719906384001    7    3    7    3
 0.006867319831879961    7    4    1    1
 -0.05185274641685    7    4    2    2
 -0.002609366244507614    7    4    3    2
 0.1398397126133817    7    4    3    3
 -0.01200309073032492    7    4    4    2
 -0.005392242635403886    7    4    4    3
 -0.002576260251790777    7    4    4    4
 -0.05311748652846782    7    4    5    2
 0.007583670074164859    7    4    5    3
 0.01424908518100096    7    4    5    4
 -0.07714650879688165    7    4    5    5
 0.0124928811662523    7    4    6    2
 0.01780388488722589    7    4    6    3
 0.01984634216644206    7    4    6    4
 -0.02794919579138444    7    4    6    5
 -0.06972085515110242    7    4    6    6
 0.01448645924041612    7    4    7    2
 0.01110004288303922    7    4    7    3
 0.1070537532440033    7    4    7    4
 0.004634488415707071    7    5    1    1
 0.0006144008560878702    7    5    2    2
 -0.008056187053054779    7    5    3    2
 0.06336761307684988    7    5    3    3
 -0.06943545394830825    7    5    4    2
 -0.002566521684307772    7    5    4    3
 -0.01406789281043861    7    5    4    4
 -0.01682710715318947    7    5    5    2
 0.009381696696938599    7    5    5    3
 -0.01257982612867248    7    5    5    4
 -0.03464763705000033    7    5    5    5
 -0.03383014694123537    7    5    6    2
 -0.0002473687675248371    7    5    6    3
 -0.02988536278120997    7    5    6    4
 -0.05677052475876876    7    5    6    5
 -0.01143471129582576    7    5    6    6
 0.03272958375290983    7    5    7    2
 0.0003791792215066728    7    5    7    3
 0.05259662450880023    7    5    7    4
 0.11379970019541    7    5    7    5
 0.006950048122991445    7    6    1    1
 -0.06527100141840031    7    6    2    2
 0.0003281451453762733    7    6    3    2
 0.112876343585257    7    6    3    3
 0.01249288116625266    7    6    4    2
 -0.003017832914351073    7    6    4    3
 -0.02124212716416461    7    6    4    4
 -0.07606965919986225    7    6    5    2
 -0.001873830689838413    7    6    5    3
 -0.01315286643058266    7    6    5    4
 -0.08092175364634899    7    6    5    5
 0.0116890515256651    7    6    6    2
 -0.0003155941204302979    7    6    6    3
 -0.05003935779588176    7    6    6    4
 -0.001384334185914941    7    6    6    5
 0.005109714474548506    7    6    6    6
 0.007406242749008385    7    6    7    2
 -0.003232760309540259    7    6    7    3
 0.05219222622002844    7    6    7    4
 0.04716621906178194    7    6    7    5
 0.08306873786499139    7    6    7    6
 -0.8076021346077538    7    7    1    1
 -0.7261264595944109    7    7    2    2
 0.01339675801857878    7    7    3    2
 -3.295565705140265    7    7    3    3
 0.001676558941801494    7    7    4    2
 0.06543632030849979    7    7    4    3
 -0.81464947693114    7    7    4    4
 0.1094879288230088    7    7    5    2
 0.002755419441120197    7    7    5    3
 0.02282396858495148    7    7    5    4
 -0.6388962300104178    7    7    5    5
 -0.009375051899725925    7    7    6    2
 -0.01449787516310048    7    7    6    3
 0.09942104426754536    7    7    6    4
 0.02909857364029456    7    7    6    5
 -0.7840973523694045    7    7    6    6
 0.00495758333422514    7    7    7    2
 0.04321062711858385    7    7    7    3
 -0.04791631187254559    7    7    7    4
 -0.07786950039378956    7    7    7    5
 -0.07792682725620624    7    7    7    6
 -0.5904735698314898    7    7    7    7
 -0.2042608729548769    1    1  0  0
 -0.1361331921158672    2    2  0  0
 -0.01917083122740748    3    2  0  0
 -1.052577558190952    3    3  0  0
 -0.009014451165427578    4    2  0  0
 -0.09579760870340819    4    3  0  0
 -0.1517308756574202    4    4  0  0
 0.07735662309985099    5    2  0  0
 -0.07650259407587007    5    5  0  0
 -0.0237750489062924    6    2  0  0
 0.04709180704971563    6    3  0  0
 -0.002734421200867358    6    4  0  0
 -0.1584004974814383    6    6  0  0
 0.02042113852204925    7    2  0  0
 -0.05176838742959553    7    3  0  0
 -0.02434237696119503    7    4  0  0
 -0.02864664787533374    7    5  0  0
 -0.06420149070943008    7    6  0  0
 -0.08855085014747949    7    7  0  0
 8.841020169010916  0  0  0  0
