 &FCI NORB=  10,NELEC=14,MS2=0,
  ORBSYM=1,1,1,1,1,1,1,1,1,1,
  ISYM=1,
 &END
 -0.6104550151187722    1    1    1    1
 0.07978737326610888    2    1    2    1
 -0.5764860279894221    2    2    1    1
 -0.5099903028186349    2    2    2    2
 0.08191661166639684    3    1    3    1
 -0.003064921240986788    3    2    3    1
 0.02095893219772382    3    2    3    2
 -0.5789733914023777    3    3    1    1
 -0.0007410227842380607    3    3    2    1
 -0.5560273618634655    3    3    2    2
 -0.5154466608135966    3    3    3    3
 -0.00600372194399528    4    1    3    1
 0.0007395002584154157    4    1    3    2
 0.07526886579275847    4    1    4    1
 -0.004133197960558103    4    2    3    1
 0.0007572350744812884    4    2    3    2
 0.003064921225924384    4    2    4    1
 0.02179739645838281    4    2    4    2
 0.0002934967562413166    4    3    1    1
 -0.0004102564343248464    4    3    2    1
 0.001390387274889691    4    3    2    2
 0.0003853093062994862    4    3    3    3
 0.02120378207795657    4    3    4    3
 -0.5786484110204697    4    4    1    1
 0.000741022780002974    4    4    2    1
 -0.5544878266642532    4    4    2    2
 -0.5577998092421763    4    4    3    3
 0.0001792318151646438    4    4    4    3
 -0.5148215609262732    4    4    4    4
 -0.03925343229514594    5    1    1    1
 -0.04259524036151483    5    1    2    2
 -0.04310446313334503    5    1    3    3
 0.0001844426398175137    5    1    4    3
 -0.04290023518787928    5    1    4    4
 0.03267238462643079    5    1    5    1
 -0.01623140370187307    5    2    2    1
 0.0001327224435116516    5    2    3    3
 7.347984163113594e-05    5    2    4    3
 -0.0001327224446843275    5    2    4    4
 0.01135558985355671    5    2    5    2
 -0.01435339828823325    5    3    3    1
 0.0001200940181694278    5    3    3    2
 -0.0004051816310714423    5    3    4    1
 2.439607138796123e-05    5    3    4    2
 0.01064625328500024    5    3    5    3
 -0.000405181631071443    5    4    3    1
 0.0001085805247838933    5    4    3    2
 -0.01480204406849348    5    4    4    1
 -0.0001200940180526178    5    4    4    2
 0.0001176350661289203    5    4    5    3
 0.01077650715630684    5    4    5    4
 -1.932044957013791    5    5    1    1
 -1.900550766255276    5    5    2    2
 1.159436614253843e-07    5    5    3    1
 -2.201709263700249e-08    5    5    3    2
 -1.911875131221062    5    5    3    3
 -6.833629333868908e-08    5    5    4    1
 -3.735558720392986e-08    5    5    4    2
 0.003111298009378138    5    5    4    3
 -1.908430081850615    5    5    4    4
 0.1584616522530294    5    5    5    1
 3.962276700741991e-08    5    5    5    3
 -2.335335117200736e-08    5    5    5    4
 -1.812067794251939    5    5    5    5
 2.673885886765062e-08    6    1    1    1
 2.90241483812513e-08    6    1    2    2
 0.00034514922760124    6    1    3    1
 -0.000260831970393475    6    1    3    2
 2.93724992785905e-08    6    1    3    3
 -0.0002034282737819592    6    1    4    1
 -0.0004425439539172679    6    1    4    2
 2.923645305600456e-08    6    1    4    4
 0.004302213765304794    6    1    5    3
 -0.002535691375581254    6    1    5    4
 1.741886989282028e-07    6    1    5    5
 0.0326962831528935    6    1    6    1
 1.10669224279614e-08    6    2    2    1
 0.000673647917673728    6    2    3    1
 -0.001832168632261659    6    2    3    2
 0.00114295349801326    6    2    4    1
 0.00107986596036887    6    2    4    2
 -0.000487885730824097    6    2    5    3
 -0.0008277776687921949    6    2    5    4
 0.01124400889370631    6    2    6    2
 -0.006369057266489751    6    3    1    1
 0.0007010239034570031    6    3    2    1
 -0.00427962879660957    6    3    2    2
 -0.006623370767571674    6    3    3    3
 0.0006542296312315415    6    3    4    3
 -0.003915268441573796    6    3    4    4
 0.004290206880514606    6    3    5    1
 -0.0004911498992429171    6    3    5    2
 0.01731110004904873    6    3    5    5
 0.01075010205204096    6    3    6    3
 0.003753872880855529    6    4    1    1
 0.001189401320474916    6    4    2    1
 0.002522379970527868    6    4    2    2
 0.002168290810990911    6    4    3    3
 1.008191864026195e-08    6    4    4    1
 -0.001346416840861379    6    4    4    3
 0.004043101279401661    6    4    4    4
 -0.00252861461095007    6    4    5    1
 -0.000833315862558933    6    4    5    2
 -0.010203027903958    6    4    5    5
 7.854371146942502e-05    6    4    6    3
 0.01083707120862278    6    4    6    4
 0.08514103183563769    6    5    3    1
 -0.016167432374945    6    5    3    2
 -0.05018146282613205    6    5    4    1
 -0.02743068434946178    6    5    4    2
 1.410256588703844e-07    6    5    5    1
 0.02044498729825587    6    5    5    3
 -0.01205011670599376    6    5    5    4
 2.652731259100511e-06    6    5    5    5
 0.2072026065764068    6    5    6    1
 -1.394771445876375e-08    6    5    6    3
 1.947740131345782    6    5    6    5
 -1.93209666882657    6    6    1    1
 -1.900623312669321    6    6    2    2
 -1.1594840889068e-07    6    6    3    1
 2.201689362385364e-08    6    6    3    2
 -1.911939341837207    6    6    3    3
 6.833909167798538e-08    6    6    4    1
 3.735524812055672e-08    6    6    4    2
 0.003105645975410585    6    6    4    3
 -1.908500550798814    6    6    4    4
 0.158537511569936    6    6    5    1
 -1.607926343943631e-08    6    6    5    3
 -1.811661839378746    6    6    5    5
 -3.902047270273776e-07    6    6    6    1
 0.01728526628182574    6    6    6    3
 -0.01018780168222201    6    6    6    4
 -2.652177784228423e-06    6    6    6    5
 -1.811255533455336    6    6    6    6
 -0.0589792024292866    7    1    3    1
 0.009998115046677254    7    1    3    2
 0.03476188378752222    7    1    4    1
 0.01696343189119692    7    1    4    2
 0.0007947590333334899    7    1    5    3
 -0.0004684248009109028    7    1    5    4
 -4.840317388301677e-07    7    1    5    5
 -0.009132134628432209    7    1    6    1
 -0.355427293212328    7    1    6    5
 4.840181010383266e-07    7    1    6    6
 0.215154237697469    7    1    7    1
 0.003083092312676573    7    2    3    1
 -0.007518396165815724    7    2    3    2
 0.005230968661660326    7    2    4    1
 0.004431284301130577    7    2    4    2
 1.01483581899859e-08    7    2    5    2
 -0.000649653589181063    7    2    5    3
 -0.001102243208905122    7    2    5    4
 0.01490029369873993    7    2    6    2
 0.06844947855530903    7    2    7    2
 -0.01401038912737226    7    3    1    1
 0.0034183326327116    7    3    2    1
 -0.002304916092988826    7    3    2    2
 -0.005428363392346235    7    3    3    3
 0.0008709141716942073    7    3    4    3
 0.001085392077910673    7    3    4    4
 0.0005494938115442965    7    3    5    1
 -0.0006891638404923732    7    3    5    2
 1.024137651731922e-08    7    3    5    3
 -0.004154643884362289    7    3    5    5
 0.01503256089252939    7    3    6    3
 0.0001286630150541689    7    3    6    4
 -0.004202539899771022    7    3    6    6
 0.08055240145416778    7    3    7    3
 0.008257614525181225    7    4    1    1
 0.005799758505828044    7    4    2    1
 0.001358499642016423    7    4    2    2
 -0.001655581012680781    7    4    3    3
 -0.003201218849928656    7    4    4    3
 0.00421529457113313    7    4    4    4
 -0.0003238673842998604    7    4    5    1
 -0.001169278790163976    7    4    5    2
 1.034620916416497e-08    7    4    5    4
 0.002448714834011208    7    4    5    5
 0.0001286630150541669    7    4    6    3
 0.01517502568943286    7    4    6    4
 0.002476944373458108    7    4    6    6
 -0.002533195339214155    7    4    7    3
 0.07774746827763669    7    4    7    4
 2.566592244280426e-08    7    5    1    1
 2.815222547076307e-08    7    5    2    2
 -0.002451420616471971    7    5    3    1
 0.0002605617284282314    7    5    3    2
 2.833827007813675e-08    7    5    3    3
 0.001444848269799928    7    5    4    1
 0.000442085444366401    7    5    4    2
 2.832393218976342e-08    7    5    4    4
 -4.267070855195454e-08    7    5    5    1
 -0.002692957512123525    7    5    5    3
 0.001587208239945417    7    5    5    4
 -3.761684363535261e-07    7    5    5    5
 -0.03133108923836289    7    5    6    1
 -0.199850499653874    7    5    6    5
 1.680946648189619e-07    7    5    6    6
 0.009044447527690047    7    5    7    1
 0.03030381296716341    7    5    7    5
 0.03764744742712297    7    6    1    1
 0.04130709170732445    7    6    2    2
 0.04158199360364705    7    6    3    3
 -1.483426245284353e-05    7    6    4    3
 0.04156556805830547    7    6    4    4
 -0.03133451938861514    7    6    5    1
 -0.1526217657050166    7    6    5    5
 4.266802814031982e-08    7    6    6    1
 -0.002692316313374001    7    6    6    3
 0.001586830322382997    7    6    6    4
 1.359094733316525e-07    7    6    6    5
 -0.1527013920998394    7    6    6    6
 0.001653896650665375    7    6    7    3
 -0.0009747938391661328    7    6    7    4
 0.03032604683591878    7    6    7    6
 -0.6205395182703961    7    7    1    1
 -0.5812537888861931    7    7    2    2
 -0.5829841090545077    7    7    3    3
 0.000722619264540612    7    7    4    3
 -0.5821839738585621    7    7    4    4
 -0.03941814143488401    7    7    5    1
 -1.944040751499841    7    7    5    5
 2.687229818041856e-08    7    7    6    1
 -0.001299606679855629    7    7    6    3
 0.0007659780823382876    7    7    6    4
 -1.944114912435562    7    7    6    6
 0.01634994077410447    7    7    7    3
 -0.009636528093165011    7    7    7    4
 2.64496636979368e-08    7    7    7    5
 0.03882775229696375    7    7    7    6
 -0.6150211755485653    7    7    7    7
 1.383002726352175e-06    8    1    1    1
 2.115711281168407e-07    8    1    2    2
 0.004244605023679189    8    1    3    2
 -0.00776251103925173    8    1    3    3
 -0.002501737228690444    8    1    4    2
 -0.004298685518214788    8    1    4    3
 0.007763878484831707    8    1    4    4
 -1.594960197113033e-07    8    1    5    1
 -3.791728899878812e-07    8    1    5    5
 -0.006126561082171617    8    1    6    2
 0.007343512177926766    8    1    6    3
 0.01246157879573859    8    1    6    4
 -3.754130016422199e-07    8    1    6    6
 -0.02803950385863373    8    1    7    2
 0.03580833631170454    8    1    7    3
 0.06076520514259653    8    1    7    4
 -2.278699129228005e-08    8    1    7    6
 -8.418051205360237e-07    8    1    7    7
 0.07847667372151773    8    1    8    1
 -6.409122327526626e-07    8    2    2    1
 0.02362964013066588    8    2    3    1
 -0.004363719449864655    8    2    3    2
 0.0008482618134494604    8    2    3    3
 -0.01392712634807501    8    2    4    1
 -0.007403761342939245    8    2    4    2
 0.001439333219099768    8    2    4    3
 0.00244226502608366    8    2    4    4
 1.683902575383642e-07    8    2    5    2
 -0.0003786484426749405    8    2    5    3
 0.0002231724508659058    8    2    5    4
 2.00236347245819e-07    8    2    5    5
 0.002372163495494286    8    2    6    1
 -1.244237915001587e-08    8    2    6    4
 0.1470363960319385    8    2    6    5
 -2.002353228321162e-07    8    2    6    6
 -0.09092889764646099    8    2    7    1
 -4.144736256957395e-08    8    2    7    3
 -7.030088297557312e-08    8    2    7    4
 -0.002369705751794272    8    2    7    5
 0.06075189274581826    8    2    8    2
 0.003369654408921151    8    3    2    1
 -0.0007364465526323483    8    3    2    2
 -0.03210682302018163    8    3    3    1
 0.005026274260505528    8    3    3    2
 0.007745169082799428    8    3    4    1
 0.008528004091593423    8    3    4    2
 -0.0006035290408362552    8    3    5    2
 0.001258168777261516    8    3    5    3
 0.001137670745262873    8    3    5    4
 -2.306341341968507e-07    8    3    5    5
 -0.002732327364184954    8    3    6    1
 -0.1693610064237464    8    3    6    5
 2.306413492297397e-07    8    3    6    6
 0.1047348544588505    8    3    7    1
 -3.211091180769322e-08    8    3    7    2
 0.002729494952653094    8    3    7    5
 -0.0006085480689213511    8    3    8    1
 -0.04572058349057827    8    3    8    2
 0.07323550575048904    8    3    8    3
 -0.001986048134339752    8    4    2    1
 -0.001249501621585911    8    4    2    2
 -0.04330476398678956    8    4    3    1
 0.008529172298118582    8    4    3    2
 0.03211123968076127    8    4    4    1
 0.01447131858950726    8    4    4    2
 0.0003557153286600107    8    4    5    2
 0.0002556931389741021    8    4    5    3
 -0.001258102812548782    8    4    5    4
 -3.913812057377845e-07    8    4    5    5
 -0.004636611893733201    8    4    6    1
 -1.141805041407475e-08    8    4    6    2
 -0.2873960632734728    8    4    6    5
 3.913772459754423e-07    8    4    6    6
 0.1777287300933062    8    4    7    1
 -5.447921544473556e-08    8    4    7    2
 0.004631808897660404    8    4    7    5
 0.0003586735294953367    8    4    8    1
 -0.07758513217870236    8    4    8    2
 0.0892253818344883    8    4    8    3
 0.1720654353960607    8    4    8    4
 1.935467044981505e-07    8    5    1    1
 4.490062613528362e-07    8    5    2    2
 -0.0007135591043187895    8    5    3    2
 0.001390809829932378    8    5    3    3
 0.0004205661934561928    8    5    4    2
 0.0007699226296519836    8    5    4    3
 -0.001390079573306454    8    5    4    4
 -2.764995559766975e-07    8    5    5    1
 -1.185029030889247e-08    8    5    5    4
 -1.656603348902197e-06    8    5    5    5
 0.004437127546010504    8    5    6    2
 -0.00514501914288642    8    5    6    3
 -0.008730791674460387    8    5    6    4
 -1.660454226638438e-06    8    5    6    6
 0.00590834216618327    8    5    7    2
 -0.00721921173935191    8    5    7    3
 -0.01225078750865188    8    5    7    4
 3.924734759587225e-07    8    5    7    6
 6.429818832567976e-07    8    5    7    7
 -0.01603772782219364    8    5    8    1
 0.0001052633243107452    8    5    8    3
 -6.204138656031274e-05    8    5    8    4
 0.01127266424126077    8    5    8    5
 -0.006375534834438677    8    6    2    1
 0.007056684209546817    8    6    3    1
 0.01197496774824963    8    6    4    1
 1.553894636609471e-08    8    6    4    2
 0.004466813865261718    8    6    5    2
 -0.005110830412588464    8    6    5    3
 -0.008672764177612959    8    6    5    4
 -2.772950780115147e-07    8    6    6    1
 1.185010610763586e-08    8    6    6    4
 -2.369057532125028e-06    8    6    6    5
 2.660749158143154e-07    8    6    7    1
 3.936698917685085e-07    8    6    7    5
 0.0009992054596319505    8    6    8    1
 -1.894552183208994e-08    8    6    8    2
 -0.001773590392194984    8    6    8    3
 0.001045406038588257    8    6    8    4
 -0.0007116223044919905    8    6    8    5
 0.01118534119094087    8    6    8    6
 -0.03108838181822642    8    7    2    1
 0.03229735110558721    8    7    3    1
 -9.320008010610513e-08    8    7    3    2
 0.05480542003261168    8    7    4    1
 -1.581262882572048e-07    8    7    4    2
 0.006267672256615333    8    7    5    2
 -0.006805400484721946    8    7    5    3
 -0.01154839917747829    8    7    5    4
 2.219275880819167e-07    8    7    6    1
 4.118959946185106e-06    8    7    6    5
 -1.87057514126325e-06    8    7    7    1
 -4.521508907007281e-08    8    7    7    5
 0.004725628433400238    8    7    8    1
 1.224483037404932e-06    8    7    8    2
 -0.006966649637833697    8    7    8    3
 0.004103087927324861    8    7    8    4
 -0.0009731231997735844    8    7    8    5
 0.01495732330963088    8    7    8    6
 0.06971916546632606    8    7    8    7
 -0.5768096578522165    8    8    1    1
 -0.54594872162966    8    8    2    2
 -0.003777063834571813    8    8    3    1
 -0.006941012879974124    8    8    3    2
 -0.547372005335811    8    8    3    3
 0.002226172093274968    8    8    4    1
 -0.01177856992118344    8    8    4    2
 0.01628975638862462    8    8    4    3
 -0.5293291445561611    8    8    4    4
 -0.04262717184456428    8    8    5    1
 6.052191763275021e-05    8    8    5    3
 -3.567114968227271e-05    8    8    5    4
 -1.901534270180187    8    8    5    5
 -0.0003791478204035177    8    8    6    1
 1.198065328603311e-07    8    8    6    2
 -0.004240978630932382    8    8    6    3
 0.002499252865192347    8    8    6    4
 -0.02350293328133354    8    8    6    5
 -1.901606956545761    8    8    6    6
 0.01453446811479031    8    8    7    1
 5.840901504119981e-07    8    8    7    2
 -0.001903505578588869    8    8    7    3
 0.001119926447999467    8    8    7    4
 0.0003788121898481031    8    8    7    5
 0.04134771735255136    8    8    7    6
 -0.5813358235582946    8    8    7    7
 -1.049715045822708e-06    8    8    8    1
 -0.006878923752586981    8    8    8    2
 0.007923367546406964    8    8    8    3
 0.01344547680113138    8    8    8    4
 7.836082392636378e-07    8    8    8    5
 -2.424028914739926e-07    8    8    8    7
 -0.5098937825552604    8    8    8    8
 -6.09593058969211e-07    9    1    1    1
 -9.325527019981627e-08    9    1    2    2
 0.009629867362333176    9    1    3    2
 0.003421520992339283    9    1    3    3
 -0.005675769024317676    9    1    4    2
 0.001894753214672784    9    1    4    3
 -0.003422123729035982    9    1    4    4
 7.030186181499893e-08    9    1    5    1
 1.671299395749441e-07    9    1    5    5
 -0.01389951957755645    9    1    6    2
 -0.00323683675926654    9    1    6    3
 -0.005492752698540847    9    1    6    4
 1.654726746796533e-07    9    1    6    6
 -0.06361409404097954    9    1    7    2
 -0.01578342031105012    9    1    7    3
 -0.02678378478330344    9    1    7    4
 1.004393659460064e-08    9    1    7    6
 3.710466715493069e-07    9    1    7    7
 -0.002973624786993117    9    1    8    1
 -0.0006509346724026282    9    1    8    3
 0.0003836558226826572    9    1    8    4
 0.0004393975564404816    9    1    8    5
 0.0008862839686909581    9    1    8    6
 0.003989003945080034    9    1    8    7
 1.75343148779464e-08    9    1    8    8
 0.07304101824844028    9    1    9    1
 2.824981002651697e-07    9    2    2    1
 0.05360929911546733    9    2    3    1
 -0.009900105978049611    9    2    3    2
 -0.0003738926653977919    9    2    3    3
 -0.03159690448565516    9    2    4    1
 -0.01679714353045876    9    2    4    2
 -0.0006344222028052692    9    2    4    3
 -0.00107648934430937    9    2    4    4
 -7.42222195473891e-08    9    2    5    2
 -0.000859051492475525    9    2    5    3
 0.0005063182769841786    9    2    5    4
 4.542824259746734e-07    9    2    5    5
 0.005381801063354252    9    2    6    1
 0.3335860424542859    9    2    6    5
 -4.542801008759369e-07    9    2    6    6
 -0.2062932167082295    9    2    7    1
 1.824368942586021e-08    9    2    7    3
 3.100176987982238e-08    9    2    7    4
 -0.005376225103820554    9    2    7    5
 0.08973652742052085    9    2    8    2
 -0.09335606230134916    9    2    8    3
 -0.1584196848947165    9    2    8    4
 -2.214905848000622e-07    9    2    8    6
 1.756890077036896e-06    9    2    8    7
 -0.01415604611584233    9    2    8    8
 0.2247863219830721    9    2    9    2
 0.007644839706357936    9    3    2    1
 -0.001670799310247996    9    3    2    2
 0.01415188569948498    9    3    3    1
 -0.002215456164172174    9    3    3    2
 -0.003413877090529412    9    3    4    1
 -0.003758931217282587    9    3    4    2
 -0.001369245096190706    9    3    5    2
 -0.0005545693734806416    9    3    5    3
 -0.0005014568505994996    9    3    5    4
 1.016572389635513e-07    9    3    5    5
 0.001204341660553809    9    3    6    1
 0.07465010173489291    9    3    6    5
 -1.016614725307289e-07    9    3    6    6
 -0.04616450802719204    9    3    7    1
 1.415110403477663e-08    9    3    7    2
 -0.001203093204291812    9    3    7    5
 -0.0004614644770462186    9    3    8    1
 0.009780844567751957    9    3    8    2
 -0.02297232634658979    9    3    8    3
 -0.03953204843038575    9    3    8    4
 8.42960776228485e-05    9    3    8    5
 0.0001328205959501636    9    3    8    6
 0.001255321279071789    9    3    8    7
 -0.0018218279073281    9    3    8    8
 0.0006085480764128303    9    3    9    1
 0.04572058347850627    9    3    9    2
 0.03124310254074352    9    3    9    3
 -0.004505809141416764    9    4    2    1
 -0.002834783371963604    9    4    2    2
 0.01908765840579919    9    4    3    1
 -0.003759446134291405    9    4    3    2
 -0.0141538324558247    9    4    4    1
 -0.0063785957979597    9    4    4    2
 0.0008070224240487107    9    4    5    2
 -0.0001127031496198163    9    4    5    3
 0.0005545402979799613    9    4    5    4
 1.725113712618077e-07    9    4    5    5
 0.002043702720882814    9    4    6    1
 0.1266770068197567    9    4    6    5
 -1.725090050045472e-07    9    4    6    6
 -0.07833838535454485    9    4    7    1
 2.401460048167119e-08    9    4    7    2
 -0.002041585680171331    9    4    7    5
 0.0002719835665881946    9    4    8    1
 0.01659747224169201    9    4    8    2
 -0.03953204843674755    9    4    8    3
 -0.06675967370946913    9    4    8    4
 -4.968345284278056e-05    9    4    8    5
 -7.831235910534696e-05    9    4    8    6
 -0.0007385537326983093    9    4    8    7
 -0.003091526422863586    9    4    8    8
 -0.0003586735013960616    9    4    9    1
 0.07758513217329195    9    4    9    2
 0.01696253425743383    9    4    9    3
 0.05003168516356127    9    4    9    4
 -8.531055330724933e-08    9    5    1    1
 -1.979107452270934e-07    9    5    2    2
 -0.001618873721646298    9    5    3    2
 -0.0006130342366648414    9    5    3    3
 0.000954151596862546    9    5    4    2
 -0.0003393626659578184    9    5    4    3
 0.0006127123579243761    9    5    4    4
 1.218740982714221e-07    9    5    5    1
 1.375482669345253e-08    9    5    5    2
 7.301893798594809e-07    9    5    5    5
 0.01006664919628069    9    5    6    2
 0.002267795938128042    9    5    6    3
 0.003848314913887335    9    5    6    4
 7.318867505772401e-07    9    5    6    6
 0.01340443953930532    9    5    7    2
 0.00318204823043706    9    5    7    3
 0.005399841163822842    9    5    7    4
 -1.729925055389176e-07    9    5    7    6
 -2.834103546826265e-07    9    5    7    7
 0.0004393975931958314    9    5    8    1
 0.0001081230422702542    9    5    8    3
 -6.372688078782604e-05    9    5    8    4
 -0.0001881346237724124    9    5    8    5
 -0.000647192780150427    9    5    8    6
 -0.0008505160628425392    9    5    8    7
 -2.134040420839145e-07    9    5    8    8
 -0.01523453085732905    9    5    9    1
 -0.0001052655742581368    9    5    9    3
 6.204271153237444e-05    9    5    9    4
 0.01092876597263592    9    5    9    5
 -0.01446437406888477    9    6    2    1
 -0.003110410154451796    9    6    3    1
 -0.005278266702161582    9    6    4    1
 0.0101339994715903    9    6    5    2
 0.002252726399690369    9    6    5    3
 0.003822737842542702    9    6    5    4
 1.222247445145177e-07    9    6    6    1
 -1.375467542290982e-08    9    6    6    2
 1.044221389247333e-06    9    6    6    5
 -1.172791772906896e-07    9    6    7    1
 -1.735198557441329e-07    9    6    7    5
 0.0009401991316113094    9    6    8    1
 1.868590031290927e-07    9    6    8    2
 0.0001328205797230278    9    6    8    3
 -7.831234954083343e-05    9    6    8    4
 -0.0006536213402872335    9    6    8    5
 -0.0001331025753369216    9    6    8    6
 0.0001293839265603283    9    6    8    7
 -2.56488562833683e-08    9    6    8    8
 -0.0009991841566157275    9    6    9    1
 1.894552199209297e-08    9    6    9    2
 -0.001530799930322675    9    6    9    3
 0.0009022543406587727    9    6    9    4
 0.0007116222591899488    9    6    9    5
 0.01094203197428858    9    6    9    6
 -0.07053117824486209    9    7    2    1
 -0.01423586572049947    9    7    3    1
 4.107690225521601e-08    9    7    3    2
 -0.02415686035543183    9    7    4    1
 6.970010188348937e-08    9    7    4    2
 0.01421966288554886    9    7    5    2
 0.00299965056450324    9    7    5    3
 0.005090245929940875    9    7    5    4
 -9.782013780431057e-08    9    7    6    1
 -1.815534665786431e-06    9    7    6    5
 8.245028009720951e-07    9    7    7    1
 1.992968196079317e-08    9    7    7    5
 0.004649237204284625    9    7    8    1
 4.814111141160798e-07    9    7    8    2
 0.001255321279133345    9    7    8    3
 -0.0007385537327367056    9    7    8    4
 -0.0009283288450793003    9    7    8    5
 0.0001293839795739497    9    7    8    6
 0.002880578125509907    9    7    8    7
 -5.637602509180355e-08    9    7    8    8
 -0.004725628471887353    9    7    9    1
 -1.224483033147607e-06    9    7    9    2
 -0.00467197749711179    9    7    9    3
 0.002753044155186503    9    7    9    4
 0.0009731437543747059    9    7    9    5
 0.01519382906068543    9    7    9    6
 0.07498473573074822    9    7    9    7
 -0.0007342291120734789    9    8    1    1
 0.01460637772931179    9    8    2    2
 -0.003452153367517342    9    8    3    1
 -0.006343933284396432    9    8    3    2
 -0.004256064171806217    9    8    3    3
 0.002034672375491639    9    8    4    1
 -0.01076535414266079    9    8    4    2
 -0.006742009883857943    9    8    4    3
 -0.01172380252976676    9    8    4    4
 -7.244361307225249e-05    9    8    5    1
 5.531840155991338e-05    9    8    5    3
 -3.260423532548799e-05    9    8    5    4
 -0.002231262751526735    9    8    5    5
 -0.0003465592782421059    9    8    6    1
 1.095005387881166e-07    9    8    6    2
 8.809811334259194e-05    9    8    6    3
 -5.17713957170682e-05    9    8    6    4
 -0.021481164617316    9    8    6    5
 -0.002231666985730023    9    8    6    6
 0.01328418453898415    9    8    7    1
 5.33845565584224e-07    9    8    7    2
 0.0009130448708791026    9    8    7    3
 -0.000537266636430629    9    8    7    4
 0.0003462003283245735    9    8    7    5
 9.216901725823787e-05    9    8    7    6
 -0.0001861146838327829    9    8    7    7
 2.691701870563265e-07    9    8    8    1
 -0.00701237620096671    9    8    8    2
 0.00640648655204923    9    8    8    3
 0.01087141843005427    9    8    8    4
 -7.093781653990395e-08    9    8    8    5
 -1.399473181872865e-07    9    8    8    7
 -7.973636391196634e-05    9    8    8    8
 -5.255052983511012e-07    9    8    9    1
 -0.0126186690505213    9    8    9    2
 -0.003560175654079796    9    8    9    3
 -0.006041404587262167    9    8    9    4
 1.51904585912854e-07    9    8    9    5
 1.33630624731645e-07    9    8    9    7
 0.02138510114381198    9    8    9    8
 -0.5781517964667697    9    9    1    1
 -0.5192489049447873    9    9    2    2
 0.003777063866636579    9    9    3    1
 0.006941012873348452    9    9    3    2
 -0.555151903649115    9    9    3    3
 -0.002226172101950803    9    9    4    1
 0.01177856991248542    9    9    4    2
 0.003965658536991036    9    9    4    3
 -0.5507597404386756    9    9    4    4
 -0.04275959463926963    9    9    5    1
 -6.052758094440785e-05    9    9    5    3
 3.567448559316823e-05    9    9    5    4
 -1.905612802964653    9    9    5    5
 0.0003792060102375357    9    9    6    1
 -1.198065320203637e-07    9    9    6    2
 -0.004079938999477566    9    9    6    3
 0.002404616939484963    9    9    6    4
 0.02350293335142918    9    9    6    5
 -1.905686463226309    9    9    6    6
 -0.01453446822439599    9    9    7    1
 -5.840901486082328e-07    9    9    7    2
 -0.0002344996778440018    9    9    7    3
 0.0001378266464805547    9    9    7    4
 -0.0003787557229696927    9    9    7    5
 0.04151619921228778    9    9    7    6
 -0.5816760329629813    9    9    7    7
 4.538467065329731e-08    9    9    8    1
 0.003588396976508799    9    9    8    2
 -0.007187011208260244    9    9    8    3
 -0.01219592202864258    9    9    8    4
 4.75121978423289e-07    9    9    8    5
 1.704648033662524e-07    9    9    8    7
 -0.5545269469800569    9    9    8    8
 4.251502706563039e-07    9    9    9    1
 0.01560642826951212    9    9    9    2
 0.003492422547680174    9    9    9    3
 0.005926430409257935    9    9    9    4
 -3.414129638085164e-07    9    9    9    5
 -1.068499741216944e-07    9    9    9    7
 -0.001649226352277143    9    9    9    8
 -0.5130542504031699    9    9    9    9
 -0.02017916675940338   10    1    1    1
 -0.003086999760480881   10    1    2    2
 -0.01434284057494222   10    1    3    3
 0.007885914755794875   10    1    4    3
 -0.005609337143849645   10    1    4    4
 0.002327180357639597   10    1    5    1
 0.005532449670077069   10    1    5    5
 0.01348888308653765   10    1    6    3
 -0.007948868645562985   10    1    6    4
 0.005477589754969976   10    1    6    6
 0.06718185403224788   10    1    7    3
 -0.03958976171272532   10    1    7    4
 0.0003324812660727638   10    1    7    6
 0.01228264093982849   10    1    7    7
 1.144661221140036e-07   10    1    8    1
 -2.203177343705333e-08   10    1    8    3
 1.300388517676153e-08   10    1    8    4
 3.755464032002491e-08   10    1    8    5
 4.170334593830287e-08   10    1    8    6
 2.033534855528281e-07   10    1    8    7
 -0.00274128923068521   10    1    8    8
 -5.045380755744669e-08   10    1    9    1
 -5.001837396031683e-08   10    1    9    3
 2.947227388288267e-08   10    1    9    4
 -1.655307051048369e-08   10    1    9    5
 9.462774159229053e-08   10    1    9    6
 4.61424076888758e-07   10    1    9    7
 0.0007843242877575738   10    1    9    8
 -0.001307578898881267   10    1    9    9
 0.07811721678569826   10    1   10    1
 0.009351445623219235   10    2    2    1
 0.001516277274385735   10    2    3    3