 &FCI NORB=  10,NELEC=14,MS2=0,
  ORBSYM=1,1,1,1,1,1,1,1,1,1,
  ISYM=1,
 &END
 -1.812067794251939    1    1    1    1
 2.652731259100511e-06    2    1    1    1
 1.947740131345782    2    1    2    1
 -1.811661839378746    2    2    1    1
 -2.652177784228423e-06    2    2    2    1
 -1.811255533455336    2    2    2    2
 -3.761684363535261e-07    3    1    1    1
 -0.199850499653874    3    1    2    1
 1.680946648189619e-07    3    1    2    2
 0.03030381296716341    3    1    3    1
 -0.1526217657050166    3    2    1    1
 1.359094733316525e-07    3    2    2    1
 -0.1527013920998394    3    2    2    2
 0.03032604683591878    3    2    3    2
 -1.944040751499841    3    3    1    1
 -1.944114912435562    3    3    2    2
 2.64496636979368e-08    3    3    3    1
 0.03882775229696375    3    3    3    2
 -0.6150211755485653    3    3    3    3
 0.1584616522530295    4    1    1    1
 1.410256588194999e-07    4    1    2    1
 0.1585375115699359    4    1    2    2
 -4.26707085548436e-08    4    1    3    1
 -0.03133451938861514    4    1    3    2
 -0.03941814143488398    4    1    3    3
 0.03267238462643079    4    1    4    1
 1.741886990375809e-07    4    2    1    1
 0.2072026065764068    4    2    2    1
 -3.902047269842267e-07    4    2    2    2
 -0.03133108923836288    4    2    3    1
 4.266802814754392e-08    4    2    3    2
 2.687229829492298e-08    4    2    3    3
 0.0326962831528935    4    2    4    2
 -4.840317388364337e-07    4    3    1    1
 -0.355427293212328    4    3    2    1
 4.840181010320606e-07    4    3    2    2
 0.009044447527690007    4    3    3    1
 -0.009132134628432209    4    3    4    2
 0.215154237697469    4    3    4    3
 -1.932044957013791    4    4    1    1
 -1.93209666882657    4    4    2    2
 2.566592244437992e-08    4    4    3    1
 0.03764744742712298    4    4    3    2
 -0.6205395182703961    4    4    3    3
 -0.03925343229514595    4    4    4    1
 2.673885897379238e-08    4    4    4    2
 -0.6104550151187722    4    4    4    4
 -4.599285406822295e-08    5    1    1    1
 -0.02373189453570688    5    1    2    1
 1.866430087180292e-08    5    1    2    2
 0.003125899895878489    5    1    3    1
 -0.004993873650241384    5    1    4    2
 -0.0009225311459097707    5    1    4    3
 0.0105769200907609    5    1    5    1
 -0.02009417734860326    5    2    1    1
 1.619006644744181e-08    5    2    2    1
 -0.02006419032878992    5    2    2    2
 0.003125155612652576    5    2    3    2
 0.001508542324546455    5    2    3    3
 -0.004979936438181219    5    2    4    1
 0.007393000207591541    5    2    4    4
 0.01070380899859361    5    2    5    2
 0.004822579200404655    5    3    1    1
 0.004878175380034353    5    3    2    2
 -0.001919790915688059    5    3    3    2
 -0.01897849406583891    5    3    3    3
 -0.0006378350347375976    5    3    4    1
 0.01626281651949856    5    3    4    4
 1.019540456091624e-08    5    3    5    1
 0.01495672791085373    5    3    5    2
 0.0820454471103622    5    3    5    3
 -1.345837344601677e-07    5    4    1    1
 -0.09882901655590602    5    4    2    1
 1.345892455169189e-07    5    4    2    2
 0.002845531507751699    5    4    3    1
 -0.0004006383055670527    5    4    4    2
 0.06846119253746584    5    4    4    3
 -0.01411458738215104    5    4    5    1
 0.08545515874593702    5    4    5    4
 -1.913708906100606    5    5    1    1
 -1.913769785451833    5    5    2    2
 2.834207591730655e-08    5    5    3    1
 0.04159073680271076    5    5    3    2
 -0.5834100152360417    5    5    3    3
 -0.04321317219258479    5    5    4    1
 2.94487458948796e-08    5    5    4    2
 -0.5791463761107536    5    5    4    4
 0.007542129188475228    5    5    5    2
 0.005236132099721336    5    5    5    3
 -0.5159655099696807    5    5    5    5
 0.01084584035054618    6    1    6    1
 0.01088336426207013    6    2    6    2
 1.039694347070931e-08    6    3    6    1
 0.01525085867110852    6    3    6    2
 0.07625442262144229    6    3    6    3
 -0.0150408549745757    6    4    6    1
 1.02456423020073e-08    6    4    6    2
 0.07173031871321831    6    4    6    4
 0.001708948165407576    6    5    6    2
 0.004780813994363411    6    5    6    3
 0.02138989508215492    6    5    6    5
 -1.906596306971071    6    6    1    1
 -1.906670107184188    6    6    2    2
 2.831827265208423e-08    6    6    3    1
 0.04155682485924175    6    6    3    2
 -0.581758067677028    6    6    3    3
 -0.04279152612863948    6    6    4    1
 2.916206226908002e-08    6    6    4    2
 -0.5784754263120937    6    6    4    4
 0.004690789845064146    6    6    5    2
 -0.0001949483757002317    6    6    5    3
 -0.557613696237978    6    6    5    5
 -0.5146749377785858    6    6    6    6
 0.01084584035054619    7    1    7    1
 0.01088336426207014    7    2    7    2
 1.039912027514511e-08    7    3    7    1
 0.01525085867110854    7    3    7    2
 0.07625442262144236    7    3    7    3
 -0.01504085497457572    7    4    7    1
 1.024340719879979e-08    7    4    7    2
 0.07173031871321839    7    4    7    4
 0.001708948165407578    7    5    7    2
 0.004780813994363415    7    5    7    3
 0.02138989508215494    7    5    7    5
 0.02033326810428078    7    6    7    6
 -1.906596306971071    7    7    1    1
 -1.906670107184188    7    7    2    2
 2.831742536928019e-08    7    7    3    1
 0.04155682485924174    7    7    3    2
 -0.5817580676770281    7    7    3    3
 -0.04279152612863948    7    7    4    1
 2.916291043735386e-08    7    7    4    2
 -0.5784754263120939    7    7    4    4
 0.004690789845064144    7    7    5    2
 -0.0001949483757002421    7    7    5    3
 -0.5576136962379781    7    7    5    5
 -0.5553414739871474    7    7    6    6
 -0.514674937778586    7    7    7    7
 -1.47573971689045e-08    8    1    6    1
 -0.01087268148776148    8    1    6    2
 -0.01525615487265298    8    1    6    3
 1.014578684715225e-08    8    1    6    4
 -0.001705228361234334    8    1    6    5
 -0.00231750128653562    8    1    7    2
 -0.003251834295408873    8    1    7    3
 -0.0003634677356681426    8    1    7    5
 0.01135558985355671    8    1    8    1
 -0.01080042195255857    8    2    6    1
 1.475730133339423e-08    8    2    6    2
 1.037971572646837e-08    8    2    6    3
 0.0149126758515526    8    2    6    4
 -0.002302099238201389    8    2    7    1
 0.003178622082378064    8    2    7    4
 0.0112440088937063    8    2    8    2
 -0.01438150870654135    8    3    6    1
 0.06825101822617682    8    3    6    4
 -0.003065404331695803    8    3    7    1
 0.0145476369122532    8    3    7    4
 1.01507885844759e-08    8    3    8    1
 0.01490029369873992    8    3    8    2
 0.06844947855530899    8    3    8    3
 1.055893138084631e-08    8    4    6    1
 0.01551870341139588    8    4    6    2
 0.07567229879606596    8    4    6    3
 0.009520718767308371    8    4    6    5
 0.003307796256310571    8    4    7    2
 0.01612947551276947    8    4    7    3
 0.002029331772186741    8    4    7    5
 -0.01623140370187307    8    4    8    1
 1.106442694704335e-08    8    4    8    2
 0.07978737326610885    8    4    8    4
 -0.002016110476546093    8    5    6    1
 0.01199282947062815    8    5    6    4
 -0.0004297319505269052    8    5    7    1
 0.002556259719248456    8    5    7    4
 0.002126723392782176    8    5    8    2
 0.008727116446089096    8    5    8    3
 0.02051262372408069    8    5    8    5
 -4.873952735705755e-07    8    6    1    1
 -0.3579016160930394    8    6    2    1
 4.873937023381688e-07    8    6    2    2
 0.005768106000421259    8    6    3    1
 -0.005774088399785741    8    6    4    2
 0.2213302304427946    8    6    4    3
 -0.001069844232288603    8    6    5    1
 0.06676386684236965    8    6    5    4
 0.2555181859430565    8    6    8    6
 -1.038877934225499e-07    8    7    1    1
 -0.07628637486368281    8    7    2    1
 1.038875109919153e-07    8    7    2    2
 0.001229466078988604    8    7    3    1
 -0.001230741221485824    8    7    4    2
 0.04717631932635663    8    7    4    3
 -0.0002280362381177428    8    7    5    1
 0.01423065206825443    8    7    5    4
 0.0501189029925387    8    7    8    6
 0.03106546104369603    8    7    8    7
 -1.900550766255274    8    8    1    1
 -1.90062331266932    8    8    2    2
 2.815127947838269e-08    8    8    3    1
 0.04130709170732445    8    8    3    2
 -0.5812537888861928    8    8    3    3
 -0.0425952403615148    8    8    4    1
 2.902509547199038e-08    8    8    4    2
 -0.5764860279894217    8    8    4    4
 0.004967657733025703    8    8    5    2
 0.002675473691344708    8    8    5    3
 -0.5568468453238175    8    8    5    5
 -0.5142995891538766    8    8    6    6
 0.008458356681873723    8    8    7    6
 -0.5521795324898254    8    8    7    7
 -0.5099903028186342    8    8    8    8
 0.002317501286535617    9    1    6    2
 0.00325183429540887    9    1    6    3
 0.0003634677356681423    9    1    6    5
 -1.475743737311622e-08    9    1    7    1
 -0.01087268148776148    9    1    7    2
 -0.01525615487265298    9    1    7    3
 1.014588075193797e-08    9    1    7    4
 -0.001705228361234335    9    1    7    5
 0.01135558985355671    9    1    9    1
 0.002302099238201385    9    2    6    1
 -0.00317862208237806    9    2    6    4
 -0.01080042195255857    9    2    7    1
 1.475727288812977e-08    9    2    7    2
 1.03797433871428e-08    9    2    7    3
 0.0149126758515526    9    2    7    4
 0.0112440088937063    9    2    9    2
 0.003065404331695799    9    3    6    1
 -0.01454763691225318    9    3    6    4
 -0.01438150870654135    9    3    7    1
 0.06825101822617685    9    3    7    4
 1.014828959775987e-08    9    3    9    1
 0.01490029369873992    9    3    9    2
 0.06844947855530899    9    3    9    3
 -0.003307796256310567    9    4    6    2
 -0.01612947551276945    9    4    6    3
 -0.002029331772186739    9    4    6    5
 1.055902528747994e-08    9    4    7    1
 0.01551870341139589    9    4    7    2
 0.07567229879606599    9    4    7    3
 0.009520718767308374    9    4    7    5
 -0.01623140370187306    9    4    9    1
 1.106699285521141e-08    9    4    9    2
 0.07978737326610884    9    4    9    4
 0.0004297319505269048    9    5    6    1
 -0.002556259719248453    9    5    6    4
 -0.002016110476546094    9    5    7    1
 0.01199282947062816    9    5    7    4
 0.002126723392782177    9    5    9    2
 0.008727116446089098    9    5    9    3
 0.02051262372408068    9    5    9    5
 1.03887947550656e-07    9    6    1    1
 0.07628637486368273    9    6    2    1
 -1.038873568262606e-07    9    6    2    2
 -0.001229466078988603    9    6    3    1
 0.001230741221485822    9    6    4    2
 -0.04717631932635657    9    6    4    3
 0.0002280362381177424    9    6    5    1
 -0.01423065206825441    9    6    5    4
 -0.05011890299253859    9    6    8    6
 0.009699872012930459    9    6    8    7
 0.03106546104369599    9    6    9    6
 -4.873957504582189e-07    9    7    1    1
 -0.3579016160930396    9    7    2    1
 4.873932254014377e-07    9    7    2    2
 0.005768106000421255    9    7    3    1
 -0.005774088399785742    9    7    4    2
 0.2213302304427947    9    7    4    3
 -0.001069844232288605    9    7    5    1
 0.06676386684236968    9    7    5    4
 0.2147528528864299    9    7    8    6
 0.05011890299253866    9    7    8    7
 -0.05011890299253865    9    7    9    6
 0.2555181859430566    9    7    9    7
 -0.008458356681873667    9    8    6    6
 0.0189399716679742    9    8    7    6
 0.008458356681873672    9    8    7    7
 0.02119827266162029    9    8    9    8
 -1.900550766255274    9    9    1    1
 -1.90062331266932    9    9    2    2
 2.81522521767805e-08    9    9    3    1
 0.04130709170732444    9    9    3    2
 -0.5812537888861928    9    9    3    3
 -0.0425952403615148    9    9    4    1
 2.902412176064999e-08    9    9    4    2
 -0.5764860279894217    9    9    4    4
 0.004967657733025703    9    9    5    2
 0.002675473691344705    9    9    5    3
 -0.5568468453238173    9    9    5    5
 -0.5521795324898252    9    9    6    6
 -0.008458356681873705    9    9    7    6
 -0.5142995891538767    9    9    7    7
 -0.552386848141875    9    9    8    8
 -0.5099903028186342    9    9    9    9
 0.02417122879691457   10    1    1    1
 2.357625492582972e-08   10    1    2    1
 0.02422741632499024   10    1    2    2
 -0.005726516362776088   10    1    3    2
 -0.009381643603641472   10    1    3    3
 0.004034359844846414   10    1    4    1
 -0.002824008342054083   10    1    4    4
 1.430315660683523e-08   10    1    5    1
 0.01057956496628659   10    1    5    2
 0.01643222944650838   10    1    5    3
 -1.085037144717603e-08   10    1    5    4
 -0.003754413622107192   10    1    5    5
 -0.006900641050881458   10    1    6    6
 -0.006900641050881458   10    1    7    7
 -0.00655137699633245   10    1    8    8
 -0.00655137699633245   10    1    9    9
 0.0131014273549134   10    1   10    1
 3.061619311095697e-08   10    2    1    1
 0.0345665313777969   10    2    2    1
 -6.35682586962537e-08   10    2    2    2
 -0.005743973070306537   10    2    3    1
 0.004045967176971046   10    2    4    2
 -0.003882255623066985   10    2    4    3
 0.01042588927253029   10    2    5    1
 -1.430234341813524e-08   10    2    5    2
 -1.118004929535676e-08   10    2    5    3
 -0.01594835416788736   10    2    5    4
 -0.00301270760178922   10    2    8    6
 -0.0006421556403506528   10    2    8    7
 0.000642155640350652   10    2    9    6
 -0.003012707601789221   10    2    9    7
 0.01292910026662811   10    2   10    2
 -8.184753894310354e-08   10    3    1    1
 -0.06009907159038658   10    3    2    1
 8.183968376166952e-08   10    3    2    2
 0.0006597259771690191   10    3    3    1
 -0.003238109177509716   10    3    4    2
 0.02729325625796878   10    3    4    3
 0.0142831158328956   10    3    5    1
 -0.0570395336224787   10    3    5    4
 0.03010345919391219   10    3    8    6
 0.006416522500874581   10    3    8    7
 -0.006416522500874574   10    3    9    6
 0.0301034591939122   10    3    9    7
 1.020840148145714e-08   10    3   10    1
 0.0149836945474405   10    3   10    2
 0.07207223928669446   10    3   10    3
 0.005532449685595013   10    4    1    1
 0.005477589770334045   10    4    2    2
 0.0003324812670053391   10    4    3    2
 0.01228264097428002   10    4    3    3
 0.002327180364167096   10    4    4    1
 -0.02017916681600384   10    4    4    4
 -1.065304917364581e-08   10    4    5    1
 -0.01565677104770189   10    4    5    2
 -0.07797916865717322   10    4    5    3
 -0.0189903094310049   10    4    5    5
 -0.0009618683437507616   10    4    6    6
 -0.0009618683437507408   10    4    7    7
 -0.003086999769139589   10    4    8    8
 -0.003086999769139592   10    4    9    9
 -0.01677935691001077   10    4   10    1
 1.143699957648791e-08   10    4   10    2
 0.07811721677632902   10    4   10    4
 4.793212721377888e-07   10    5    1    1
 0.3519708773958119   10    5    2    1
 -4.793146133191333e-07   10    5    2    2
 -0.005747420708776273   10    5    3    1
 0.005727774405676155   10    5    4    2
 -0.2146769504607216   10    5    4    3
 0.001222148419506372   10    5    5    1
 -0.07181067811037015   10    5    5    4
 -0.2097118502406111   10    5    8    6
 -0.04469987309767529   10    5    8    7
 0.04469987309767524   10    5    9    6
 -0.2097118502406112   10    5    9    7
 0.003278598393691147   10    5   10    2
 -0.02822458586256922   10    5   10    3
 0.242420132525014   10    5   10    5
 -0.002184628530666111   10    6    6    1
 0.007367898203681034   10    6    6    4
 0.002127500178648166   10    6    8    2
 0.01037214768431927   10    6    8    3
 -0.01812448098827858   10    6    8    5
 -0.000453474555165783   10    6    9    2
 -0.002210813002257485   10    6    9    3
 0.003863215165035966   10    6    9    5
 0.02204146869353865   10    6   10    6
 -0.002184628530666113   10    7    7    1
 0.007367898203681039   10    7    7    4
 0.0004534745551657835   10    7    8    2
 0.002210813002257488   10    7    8    3
 -0.00386321516503597   10    7    8    5
 0.002127500178648166   10    7    9    2
 0.01037214768431927   10    7    9    3
 -0.01812448098827859   10    7    9    5
 0.02204146869353867   10    7   10    7
 0.002339845551542979   10    8    6    2
 0.01338477161359421   10    8    6    3
 -0.01948035705436899   10    8    6    5
 0.0004987357610079252   10    8    7    2
 0.002852950807894623   10    8    7    3
 -0.004152218805130124   10    8    7    5
 -0.002456954734167173   10    8    8    1
 0.009351445649449062   10    8    8    4
 0.02343421723865557   10    8   10    8
 -0.0004987357610079248   10    9    6    2
 -0.002852950807894619   10    9    6    3
 0.004152218805130119   10    9    6    5
 0.00233984555154298   10    9    7    2
 0.01338477161359421   10    9    7    3
 -0.019480357054369   10    9    7    5
 -0.002456954734167172   10    9    9    1
 0.009351445649449059   10    9    9    4
 0.02343421723865557   10    9   10    9
 -1.886021524575402   10   10    1    1
 -1.886106243136048   10   10    2    2
 2.794080641256844e-08   10   10    3    1
 0.0409992288091971   10   10    3    2
 -0.5737766838045762   10   10    3    3
 -0.04146856834634816   10   10    4    1
 2.825812251498707e-08   10   10    4    2
 -0.5796003142052161   10   10    4    4
 0.0006038626040538427   10   10    5    2
 -0.02208841856050631   10   10    5    3
 -0.5163353408935595   10   10    5    5
 -0.5517212461991199   10   10    6    6
 -0.55172124619912   10   10    7    7
 -0.5510980670730732   10   10    8    8
 -0.5510980670730732   10   10    9    9
 -0.01105772246679743   10   10   10    1
 0.0106187734790851   10   10   10    4
 -0.5015766448436104   10   10   10   10
 0.133364871270659    1    1  0  0
 0.1336972917280164    2    2  0  0
 -7.926170739622493e-08    3    1  0  0
 -0.1163067734435954    3    2  0  0
 0.05214420535127261    3    3  0  0
 0.1210084062084605    4    1  0  0
 -8.245993165413501e-08    4    2  0  0
 0.06833782491947074    4    4  0  0
 -0.01381222169360301    5    2  0  0
 0.02988058054910757    5    3  0  0
 -0.0004795024432708295    5    5  0  0
 0.00269364351770896    6    6  0  0
 0.002693643517709062    7    7  0  0
 0.006287454180577834    8    8  0  0
 0.006287454180577882    9    9  0  0
 0.02130296296954498   10    1  0  0
 -1.450440286456552e-08   10    2  0  0
 -0.006279400230621228   10    4  0  0
 0.00400742161517853   10   10  0  0
 11.78621969776364  0  0  0  0
