 &FCI NORB=  10,NELEC=14,MS2=0,
  ORBSYM=1,1,1,1,1,1,1,1,1,1,
  ISYM=1,
 &END
 -1.883128635459331    1    1    1    1
 1.877898693342121    2    1    2    1
 -1.881984091567419    2    2    1    1
 -1.880836461907824    2    2    2    2
 -0.1887316312218987    3    1    2    1
 0.02744769210951941    3    1    3    1
 -0.1427902543644768    3    2    1    1
 -0.1430323659340863    3    2    2    2
 0.02754783869665349    3    2    3    2
 -2.022411640989988    3    3    1    1
 -2.022706521576258    3    3    2    2
 0.04086659804236956    3    3    3    2
 -0.660750230714081    3    3    3    3
 -0.153969179088894    4    1    1    1
 -0.1541563563006519    4    1    2    2
 0.02772554738279758    4    1    3    2
 0.03516588704218436    4    1    3    3
 0.03151253816726304    4    1    4    1
 -0.1991859044822224    4    2    2    1
 0.02774465929273105    4    2    3    1
 0.03152162171135681    4    2    4    2
 0.241185552981955    4    3    2    1
 -0.008065674599645897    4    3    3    1
 -0.006650866580599748    4    3    4    2
 0.1059210277739313    4    3    4    3
 -1.993781764001909    4    4    1    1
 -1.993865889097389    4    4    2    2
 0.03300433376426777    4    4    3    2
 -0.7270610578680102    4    4    3    3
 0.04029134996039216    4    4    4    1
 -0.6308361789386613    4    4    4    4
 -0.06500394141081421    5    1    2    1
 0.007182456700004159    5    1    3    1
 0.01334141306719678    5    1    4    2
 0.0003611297927608488    5    1    4    3
 0.01252492202887391    5    1    5    1
 -0.05456994601688682    5    2    1    1
 -0.05453160380355278    5    2    2    2
 0.007060510172749519    5    2    3    2
 0.001606068338686335    5    2    3    3
 0.01345220817797932    5    2    4    1
 0.02172194207226013    5    2    4    4
 0.01298686713344295    5    2    5    2
 -0.0007884468188669447    5    3    1    1
 -0.0006477643757250434    5    3    2    2
 -0.005642283404543035    5    3    3    2
 -0.05803307846676074    5    3    3    3
 0.002818016895302913    5    3    4    1
 0.04665607768041709    5    3    4    4
 0.01294495436328263    5    3    5    2
 0.07018549700301248    5    3    5    3
 0.225389747714183    5    4    2    1
 -0.009166347057663999    5    4    3    1
 3.731730276515248e-05    5    4    4    2
 0.1113118064319515    5    4    4    3
 0.01332560035356651    5    4    5    1
 0.1762375471585456    5    4    5    4
 -1.982521212043132    5    5    1    1
 -1.982631073359554    5    5    2    2
 0.03658437641397125    5    5    3    2
 -0.6934730848682115    5    5    3    3
 0.04314075763147207    5    5    4    1
 -0.6147824346149749    5    5    4    4
 0.02163401077446724    5    5    5    2
 0.02805517209663461    5    5    5    3
 -0.573985273221831    5    5    5    5
 0.009874384899675686    6    1    6    1
 0.01005721378394101    6    2    6    2
 0.01505835993426231    6    3    6    2
 0.08869893871438918    6    3    6    3
 0.01302491306131328    6    4    6    1
 0.06021509968185647    6    4    6    4
 0.004258781349106228    6    5    6    2
 0.009945409952423734    6    5    6    3
 0.02638606585005123    6    5    6    5
 -1.987471242409434    6    6    1    1
 -1.987695886684482    6    6    2    2
 0.04012370587719245    6    6    3    2
 -0.6612062594845974    6    6    3    3
 0.04124008804059887    6    6    4    1
 -0.6457731182810726    6    6    4    4
 0.01280218924184087    6    6    5    2
 -0.0005551790042356841    6    6    5    3
 -0.6353962049854331    6    6    5    5
 -0.5875878403689867    6    6    6    6
 0.009874384899675685    7    1    7    1
 0.01005721378394101    7    2    7    2
 0.01505835993426231    7    3    7    2
 0.08869893871438916    7    3    7    3
 0.01302491306131328    7    4    7    1
 0.06021509968185645    7    4    7    4
 0.004258781349106228    7    5    7    2
 0.009945409952423731    7    5    7    3
 0.02638606585005123    7    5    7    5
 0.02136979578592062    7    6    7    6
 -1.987471242409434    7    7    1    1
 -1.987695886684482    7    7    2    2
 0.04012370587719245    7    7    3    2
 -0.6612062594845975    7    7    3    3
 0.04124008804059887    7    7    4    1
 -0.6457731182810729    7    7    4    4
 0.01280218924184087    7    7    5    2
 -0.0005551790042357119    7    7    5    3
 -0.6353962049854331    7    7    5    5
 -0.630327431940828    7    7    6    6
 -0.5875878403689866    7    7    7    7
 0.01133836810481794    8    1    6    2
 0.01661349535596289    8    1    6    3
 0.004927547713313865    8    1    6    5
 -0.0009693134941375306    8    1    7    2
 -0.001420282450212847    8    1    7    3
 -0.0004212544915958479    8    1    7    5
 0.01287968448293042    8    1    8    1
 0.01105884777499607    8    2    6    1
 0.01435269783552281    8    2    6    4
 -0.000945417389770714    8    2    7    1
 -0.001227007587038838    8    2    7    4
 0.01248021972254351    8    2    8    2
 0.01260203551873307    8    3    6    1
 0.0537502563875096    8    3    6    4
 -0.001077344020672414    8    3    7    1
 -0.004595092375562065    8    3    7    4
 0.01390431893262647    8    3    8    2
 0.05335328297669821    8    3    8    3
 0.01574190186160719    8    4    6    2
 0.07574935957536787    8    4    6    3
 0.02911363546063904    8    4    6    5
 -0.001345770198743214    8    4    7    2
 -0.006475788731667659    8    4    7    3
 -0.002488915464246295    8    4    7    5
 0.01771661104508324    8    4    8    1
 0.08277139666999471    8    4    8    4
 0.005756082341386555    8    5    6    1
 0.03298834718413376    8    5    6    4
 -0.0004920856542399519    8    5    7    1
 -0.002820163340903289    8    5    7    4
 0.00652083541286273    8    5    8    2
 0.02195286782321295    8    5    8    3
 0.0300712782853143    8    5    8    5
 0.3073798921746002    8    6    2    1
 -0.006615323866244461    8    6    3    1
 -0.004458788430807473    8    6    4    2
 0.1412310959627723    8    6    4    3
 0.001915052116049913    8    6    5    1
 0.1427505465712568    8    6    5    4
 0.2127608636963397    8    6    8    6
 -0.02627780951870615    8    7    2    1
 0.0005655419397537538    8    7    3    1
 0.0003811804091674814    8    7    4    2
 -0.01207380161263038    8    7    4    3
 -0.0001637171981808406    8    7    5    1
 -0.01220369896336586    8    7    5    4
 -0.01650932347448071    8    7    8    6
 0.02105743520465452    8    7    8    7
 -1.954059413738515    8    8    1    1
 -1.954259473836221    8    8    2    2
 0.03811657843079293    8    8    3    2
 -0.665466828792724    8    8    3    3
 0.04067473288688049    8    8    4    1
 -0.6261932951626891    8    8    4    4
 0.01459813961087515    8    8    5    2
 0.01411708085237725    8    8    5    3
 -0.6195584880640408    8    8    5    5
 -0.5791884913898609    8    8    6    6
 -0.003690330933400338    8    8    7    6
 -0.6220399803255103    8    8    7    7
 -0.5623944225407543    8    8    8    8
 -0.000969313494137532    9    1    6    2
 -0.001420282450212849    9    1    6    3
 -0.0004212544915958486    9    1    6    5
 -0.01133836810481794    9    1    7    2
 -0.01661349535596289    9    1    7    3
 -0.004927547713313865    9    1    7    5
 0.01287968448293042    9    1    9    1
 -0.0009454173897707153    9    2    6    1
 -0.001227007587038839    9    2    6    4
 -0.01105884777499607    9    2    7    1
 -0.01435269783552281    9    2    7    4
 0.0124802197225435    9    2    9    2
 -0.001077344020672416    9    3    6    1
 -0.00459509237556207    9    3    6    4
 -0.01260203551873307    9    3    7    1
 -0.05375025638750959    9    3    7    4
 0.01390431893262647    9    3    9    2
 0.0533532829766982    9    3    9    3
 -0.001345770198743216    9    4    6    2
 -0.006475788731667668    9    4    6    3
 -0.002488915464246298    9    4    6    5
 -0.01574190186160719    9    4    7    2
 -0.07574935957536787    9    4    7    3
 -0.02911363546063903    9    4    7    5
 0.01771661104508324    9    4    9    1
 0.0827713966699947    9    4    9    4
 -0.0004920856542399524    9    5    6    1
 -0.002820163340903293    9    5    6    4
 -0.005756082341386556    9    5    7    1
 -0.03298834718413376    9    5    7    4
 0.00652083541286273    9    5    9    2
 0.02195286782321295    9    5    9    3
 0.0300712782853143    9    5    9    5
 -0.02627780951870618    9    6    2    1
 0.0005655419397537531    9    6    3    1
 0.0003811804091674789    9    6    4    2
 -0.0120738016126304    9    6    4    3
 -0.0001637171981808415    9    6    5    1
 -0.01220369896336588    9    6    5    4
 -0.01650932347448083    9    6    8    6
 -0.01823468154646348    9    6    8    7
 0.02105743520465453    9    6    9    6
 -0.3073798921746002    9    7    2    1
 0.00661532386624446    9    7    3    1
 0.004458788430807471    9    7    4    2
 -0.1412310959627723    9    7    4    3
 -0.001915052116049913    9    7    5    1
 -0.1427505465712568    9    7    5    4
 -0.1734687469452214    9    7    8    6
 0.01650932347448079    9    7    8    7
 0.01650932347448073    9    7    9    6
 0.2127608636963396    9    7    9    7
 -0.003690330933400362    9    8    6    6
 -0.02142574446782461    9    8    7    6
 0.003690330933400361    9    8    7    7
 0.02338925806746365    9    8    9    8
 -1.954059413738515    9    9    1    1
 -1.95425947383622    9    9    2    2
 0.03811657843079293    9    9    3    2
 -0.6654668287927241    9    9    3    3
 0.0406747328868805    9    9    4    1
 -0.6261932951626888    9    9    4    4
 0.01459813961087516    9    9    5    2
 0.01411708085237728    9    9    5    3
 -0.6195584880640408    9    9    5    5
 -0.6220399803255103    9    9    6    6
 0.003690330933400334    9    9    7    6
 -0.5791884913898609    9    9    7    7
 -0.6091729386756817    9    9    8    8
 -0.5623944225407543    9    9    9    9
 -0.08041518425375621   10    1    1    1
 -0.08069114760777989   10    1    2    2
 0.01918316538330804   10    1    3    2
 0.03448181923235083   10    1    3    3
 0.0126726285937905   10    1    4    1
 0.008053836522511609   10    1    4    4
 -0.006801931301678669   10    1    5    2
 -0.01750904037186524   10    1    5    3
 0.01099727065041141   10    1    5    5
 0.02353704851427863   10    1    6    6
 0.02353704851427863   10    1    7    7
 0.02025528255500279   10    1    8    8
 0.02025528255500279   10    1    9    9
 0.02572467057233767   10    1   10    1
 -0.1128502462129779   10    2    2    1
 0.01907734590700236   10    2    3    1
 0.01288986179091479   10    2    4    2
 -0.007721569788331021   10    2    4    3
 -0.006218251030686901   10    2    5    1
 -0.0218806942044383   10    2    5    4
 -0.007563424663007936   10    2    8    6
 0.0006465947762474689   10    2    8    7
 0.0006465947762474698   10    2    9    6
 0.007563424663007936   10    2    9    7
 0.02510822962190166   10    2   10    2
 0.1837800875900438   10    3    2    1
 -0.002241321002776719   10    3    3    1
 -0.009369653634176037   10    3    4    2
 0.06580945202542077   10    3    4    3
 -0.01275746526454687   10    3    5    1
 0.01719616391875119   10    3    5    4
 0.08921487870383564   10    3    8    6
 -0.00762695169234492   10    3    8    7
 -0.007626951692344932   10    3    9    6
 -0.08921487870383564   10    3    9    7
 0.01082718574588073   10    3   10    2
 0.09668762215907081   10    3   10    3
 0.01719816445666047   10    4    1    1
 0.01707363700510279   10    4    2    2
 0.001676906864324674   10    4    3    2
 0.03685910702235729   10    4    3    3
 -0.006667044943318207   10    4    4    1
 -0.05021514874749587   10    4    4    4
 -0.01409639879321596   10    4    5    2
 -0.05223624052219941   10    4    5    3
 -0.05609996224206142   10    4    5    5
 0.002410175907313336   10    4    6    6
 0.002410175907313329   10    4    7    7
 -0.007003744054568245   10    4    8    8
 -0.007003744054568245   10    4    9    9
 0.01561148244269936   10    4   10    1
 0.05975328644341647   10    4   10    4
 -0.2470048169171097   10    5    2    1
 0.005478408497618023   10    5    3    1
 0.003253896100254428   10    5    4    2
 -0.1047819322956001   10    5    4    3
 -0.002306932189253695   10    5    5    1
 -0.1294990425173558   10    5    5    4
 -0.1321359818645333   10    5    8    6
 0.01129626319222952   10    5    8    7
 0.01129626319222954   10    5    9    6
 0.1321359818645333   10    5    9    7
 0.007513523053530248   10    5   10    2
 -0.06412205538019389   10    5   10    3
 0.1353450411142257   10    5   10    5
 0.006580726845498398   10    6    6    1
 0.01992636277227662   10    6    6    4
 0.007072877489670511   10    6    8    2
 0.02851162041253509   10    6    8    3
 -0.005576671818469617   10    6    8    5
 -0.0006046580539404087   10    6    9    2
 -0.002437449388669422   10    6    9    3
 0.0004767479055228541   10    6    9    5
 0.02978321247556866   10    6   10    6
 0.006580726845498397   10    7    7    1
 0.01992636277227661   10    7    7    4
 -0.0006046580539404079   10    7    8    2
 -0.002437449388669418   10    7    8    3
 0.0004767479055228534   10    7    8    5
 -0.007072877489670509   10    7    9    2
 -0.02851162041253509   10    7    9    3
 0.005576671818469617   10    7    9    5
 0.02978321247556865   10    7   10    7
 0.007747005987507132   10    8    6    2
 0.0440734733456512   10    8    6    3
 -0.01017337357326463   10    8    6    5
 -0.0006622890854693664   10    8    7    2
 -0.003767827261605424   10    8    7    3
 0.0008697184810287909   10    8    7    5
 0.008563571376828279   10    8    8    1
 0.02716573761091627   10    8    8    4
 0.03650937486767233   10    8   10    8
 -0.0006622890854693673   10    9    6    2
 -0.003767827261605431   10    9    6    3
 0.000869718481028792   10    9    6    5
 -0.007747005987507133   10    9    7    2
 -0.0440734733456512   10    9    7    3
 0.01017337357326462   10    9    7    5
 0.008563571376828281   10    9    9    1
 0.02716573761091627   10    9    9    4
 0.03650937486767234   10    9   10    9
 -1.881244169046022   10   10    1    1
 -1.881536466506367   10   10    2    2
 0.03821476425604342   10   10    3    2
 -0.6140176672950726   10   10    3    3
 0.03264599954510947   10   10    4    1
 -0.6481093031049975   10   10    4    4
 0.0008611403989246431   10   10    5    2
 -0.04444321256660733   10   10    5    3
 -0.6036775604354251   10   10    5    5
 -0.6068147693068164   10   10    6    6
 -0.6068147693068164   10   10    7    7
 -0.6007884996952361   10   10    8    8
 -0.600788499695236   10   10    9    9
 0.03355081604440076   10   10   10    1
 0.01863440423922723   10   10   10    4
 -0.5202531492978767   10   10   10   10
 18.5212023822  0  0  0  0
