 &FCI NORB=  10,NELEC=14,MS2=0,
  ORBSYM=1,1,1,1,1,1,1,1,1,1,
  ISYM=1,
 &END
 -1.935073981016368    1    1    1    1
 1.82493398181731    2    1    2    1
 -1.935510003670703    2    2    1    1
 -1.935944576970855    2    2    2    2
 -0.1471082646269034    3    1    1    1
 -0.1469713513342681    3    1    2    2
 0.03094823078981769    3    1    3    1
 -0.1983666215425587    3    2    2    1
 0.03068704056892637    3    2    3    2
 -2.062241195853659    3    3    1    1
 -2.062076805436281    3    3    2    2
 0.04635449995717129    3    3    3    1
 -0.7090927514193938    3    3    3    3
 -0.1846139501175159    4    1    2    1
 0.02601486006194976    4    1    3    2
 0.02871558478702439    4    1    4    1
 -0.1451342011616561    4    2    1    1
 -0.1450854726489167    4    2    2    2
 0.02581901859913461    4    2    3    1
 0.02811195754284435    4    2    3    3
 0.02891148239791738    4    2    4    2
 0.1721198434091601    4    3    2    1
 -0.008300134306772344    4    3    3    2
 -0.004828713618126942    4    3    4    1
 0.05647626742439808    4    3    4    3
 -2.044830574228297    4    4    1    1
 -2.044815933749924    4    4    2    2
 0.03176854960259717    4    4    3    1
 -0.8072119549101013    4    4    3    3
 0.04147372059881087    4    4    4    2
 -0.6366423919547016    4    4    4    4
 0.00977097488297456    5    1    5    1
 0.009269761552478198    5    2    5    2
 0.01662073010274481    5    3    5    1
 0.1049701474299332    5    3    5    3
 0.01128142281405658    5    4    5    2
 0.05087367798541521    5    4    5    4
 -2.046060152340898    5    5    1    1
 -2.045937729806267    5    5    2    2
 0.04281831649701268    5    5    3    1
 -0.7240491240527892    5    5    3    3
 0.03865519360442622    5    5    4    2
 -0.6940664041889524    5    5    4    4
 -0.63810554893464    5    5    5    5
 0.00977097488297456    6    1    6    1
 0.009269761552478198    6    2    6    2
 0.01662073010274481    6    3    6    1
 0.1049701474299332    6    3    6    3
 0.01128142281405658    6    4    6    2
 0.05087367798541521    6    4    6    4
 0.02399055495736287    6    5    6    5
 -2.046060152340898    6    6    1    1
 -2.045937729806267    6    6    2    2
 0.04281831649701268    6    6    3    1
 -0.7240491240527892    6    6    3    3
 0.03865519360442622    6    6    4    2
 -0.6940664041889524    6    6    4    4
 -0.6860866588493659    6    6    5    5
 -0.63810554893464    6    6    6    6
 0.06060324510595885    7    1    1    1
 0.06066225549513066    7    1    2    2
 -0.006565206510445884    7    1    3    1
 0.002516206564896494    7    1    3    3
 -0.01521576171552773    7    1    4    2
 -0.02718781129044577    7    1    4    4
 -0.01403269141863256    7    1    5    5
 -0.01403269141863256    7    1    6    6
 0.01426986282763562    7    1    7    1
 0.06855659345354818    7    2    2    1
 -0.007024222998446223    7    2    3    2
 -0.01478375452011956    7    2    4    1
 -0.0007778777746986369    7    2    4    3
 0.01331565198804603    7    2    7    2
 0.01500997200084123    7    3    1    1
 0.01506787550852873    7    3    2    2
 0.007235154089188283    7    3    3    1
 0.05837341073300045    7    3    3    3
 -0.004775180513356157    7    3    4    2
 -0.05162643919365734    7    3    4    4
 -0.003531484804445095    7    3    5    5
 -0.003531484804445095    7    3    6    6
 0.01236104591111108    7    3    7    1
 0.05164607770551044    7    3    7    3
 -0.2521981419438807    7    4    2    1
 0.013878002689254    7    4    3    2
 -0.002323559565351665    7    4    4    1
 -0.0930856358387238    7    4    4    3
 0.0148721316445241    7    4    7    2
 0.2235584888602029    7    4    7    4
 -0.004861044031654489    7    5    5    1
 -0.01384511582677722    7    5    5    3
 0.02806054367652692    7    5    7    5
 -0.004861044031654489    7    6    6    1
 -0.01384511582677722    7    6    6    3
 0.02806054367652692    7    6    7    6
 -2.030741153487704    7    7    1    1
 -2.030726029935391    7    7    2    2
 0.03535607291570418    7    7    3    1
 -0.7808956872231212    7    7    3    3
 0.04265960678976747    7    7    4    2
 -0.6290867708567204    7    7    4    4
 -0.6904813126272474    7    7    5    5
 -0.6904813126272474    7    7    6    6
 -0.02568086050000663    7    7    7    1
 -0.03431638763561927    7    7    7    3
 -0.6054360337774911    7    7    7    7
 0.01131006675479572    8    1    6    2
 0.01346917618774885    8    1    6    4
 0.01381736176858657    8    1    8    1
 0.01188772683046091    8    2    6    1
 0.018847908263204    8    2    6    3
 -0.006218204528218359    8    2    7    6
 0.01449850429602046    8    2    8    2
 0.01143682543274879    8    3    6    2
 0.04292612940262266    8    3    6    4
 0.01344110584320244    8    3    8    1
 0.04424917100756288    8    3    8    3
 0.01560858562332903    8    4    6    1
 0.07410127916741635    8    4    6    3
 -0.03742988554774063    8    4    7    6
 0.01853260557412682    8    4    8    2
 0.08236493094062748    8    4    8    4
 0.01897993872872496    8    5    8    5
 0.2753528636451877    8    6    2    1
 -0.00884031765162442    8    6    3    2
 -0.002746198409441234    8    6    4    1
 0.09669234964526469    8    6    4    3
 -0.003782084633127061    8    6    7    2
 -0.1574223354546674    8    6    7    4
 0.1876617882079633    8    6    8    6
 -0.007026688247818406    8    7    6    2
 -0.03913149578269546    8    7    6    4
 -0.008608741470997366    8    7    8    1
 -0.02499685655616097    8    7    8    3
 0.03816957457880927    8    7    8    7
 -1.991210490779171    8    8    1    1
 -1.991102763870828    8    8    2    2
 0.03838338575497201    8    8    3    1
 -0.7300433158003885    8    8    3    3
 0.03864061898374824    8    8    4    2
 -0.6530513371060584    8    8    4    4
 -0.669669472709    8    8    5    5
 -0.6239142348567626    8    8    6    6
 -0.01762306588667639    8    8    7    1
 -0.02126293528109291    8    8    7    3
 -0.65256434046534    8    8    7    7
 -0.5910984360521236    8    8    8    8
 0.01131006675479572    9    1    5    2
 0.01346917618774885    9    1    5    4
 0.01381736176858657    9    1    9    1
 0.01188772683046091    9    2    5    1
 0.018847908263204    9    2    5    3
 -0.006218204528218359    9    2    7    5
 0.01449850429602046    9    2    9    2
 0.01143682543274879    9    3    5    2
 0.04292612940262266    9    3    5    4
 0.01344110584320244    9    3    9    1
 0.04424917100756288    9    3    9    3
 0.01560858562332903    9    4    5    1
 0.07410127916741635    9    4    5    3
 -0.03742988554774063    9    4    7    5
 0.01853260557412682    9    4    9    2
 0.08236493094062748    9    4    9    4
 0.2753528636451877    9    5    2    1
 -0.00884031765162442    9    5    3    2
 -0.002746198409441234    9    5    4    1
 0.09669234964526469    9    5    4    3
 -0.003782084633127061    9    5    7    2
 -0.1574223354546674    9    5    7    4
 0.1497019107505131    9    5    8    6
 0.1876617882079633    9    5    9    5
 0.01897993872872496    9    6    8    5
 0.01897993872872496    9    6    9    6
 -0.007026688247818406    9    7    5    2
 -0.03913149578269546    9    7    5    4
 -0.008608741470997366    9    7    9    1
 -0.02499685655616097    9    7    9    3
 0.03816957457880927    9    7    9    7
 0.02287761892611857    9    8    6    5
 0.0250683630660334    9    8    9    8
 -1.991210490779171    9    9    1    1
 -1.991102763870828    9    9    2    2
 0.03838338575497201    9    9    3    1
 -0.7300433158003885    9    9    3    3
 0.03864061898374824    9    9    4    2
 -0.6530513371060584    9    9    4    4
 -0.6239142348567626    9    9    5    5
 -0.669669472709    9    9    6    6
 -0.01762306588667639    9    9    7    1
 -0.02126293528109291    9    9    7    3
 -0.65256434046534    9    9    7    7
 -0.6412351621841909    9    9    8    8
 -0.5910984360521236    9    9    9    9
 -0.1496126043669445   10    1    2    1
 0.02753898357224666   10    1    3    2
 0.01482120306052043   10    1    4    1
 -0.00813453244124542   10    1    4    3
 0.005030914003653604   10    1    7    2
 0.02624511337849425   10    1    7    4
 -0.009911309013134308   10    1    8    6
 -0.009911309013134308   10    1    9    5
 0.03593526739620718   10    1   10    1
 -0.1061060448583828   10    2    1    1
 -0.105889954590811   10    2    2    2
 0.02801217340662632   10    2    3    1
 0.04729441359629334   10    2    3    3
 0.01429094096865793   10    2    4    2
 0.0089370174806142   10    2    4    4
 0.03159999921656297   10    2    5    5
 0.03159999921656297   10    2    6    6
 0.006121197116255613   10    2    7    1
 0.01678715243297567   10    2    7    3
 0.01304199997280422   10    2    7    7
 0.02482435899819277   10    2    8    8
 0.02482435899819277   10    2    9    9
 0.03704484246598221   10    2   10    2
 0.2263328771834684   10    3    2    1
 -0.004995123617624592   10    3    3    2
 -0.01144831357444939   10    3    4    1
 0.05920441514900607   10    3    4    3
 0.01092341405884509   10    3    7    2
 -0.056807738620433   10    3    7    4
 0.1021480423468049   10    3    8    6
 0.1021480423468049   10    3    9    5
 0.005962232622232744   10    3   10    1
 0.1066529235384178   10    3   10    3
 0.014953614705917   10    4    1    1
 0.01503018182910419   10    4    2    2
 0.002876419332623122   10    4    3    1
 0.03931512153624244   10    4    3    3
 -0.007462147318434695   10    4    4    2
 -0.05403116988652515   10    4    4    4
 0.007455280423557295   10    4    5    5
 0.007455280423557295   10    4    6    6
 0.01222982301533469   10    4    7    1
 0.02972206255750574   10    4    7    3
 -0.06166807405797112   10    4    7    7
 -0.005735373429568327   10    4    8    8
 -0.005735373429568327   10    4    9    9
 0.01373219287087945   10    4   10    2
 0.04791107557278843   10    4   10    4
 0.008593671482766099   10    5    5    2
 0.02383572756837954   10    5    5    4
 0.009888559692368574   10    5    9    1
 0.03401542903824101   10    5    9    3
 -0.004415767028048189   10    5    9    7
 0.0353344579352638   10    5   10    5
 0.008593671482766099   10    6    6    2
 0.02383572756837954   10    6    6    4
 0.009888559692368574   10    6    8    1
 0.03401542903824101   10    6    8    3
 -0.004415767028048189   10    6    8    7
 0.0353344579352638   10    6   10    6
 0.1933359536735318   10    7    2    1
 -0.006826296324288488   10    7    3    2
 -0.001708300603955989   10    7    4    1
 0.05481457807969942   10    7    4    3
 -0.003404913988233474   10    7    7    2
 -0.1243795456014073   10    7    7    4
 0.09213269829450182   10    7    8    6
 0.09213269829450182   10    7    9    5
 -0.009542977897308492   10    7   10    1
 0.05888608091624063   10    7   10    3
 0.09181505172485052   10    7   10    7
 0.01111747260367712   10    8    6    1
 0.06162918822019083   10    8    6    3
 0.0004407744591338814   10    8    7    6
 0.01260878052881652   10    8    8    2
 0.03605239402989411   10    8    8    4
 0.04716361027123336   10    8   10    8
 0.01111747260367712   10    9    5    1
 0.06162918822019083   10    9    5    3
 0.0004407744591338814   10    9    7    5
 0.01260878052881652   10    9    9    2
 0.03605239402989411   10    9    9    4
 0.04716361027123336   10    9   10    9
 -1.863251514101035   10   10    1    1
 -1.863098493483739   10   10    2    2
 0.0388158336842092   10   10    3    1
 -0.6421065151589699   10   10    3    3
 0.02543675337639924   10   10    4    2
 -0.6696231495788428   10   10    4    4
 -0.6311956015762944   10   10    5    5
 -0.6311956015762944   10   10    6    6
 -0.0001007798736143185   10   10    7    1
 0.03704874145839388   10   10    7    3
 -0.6391730208382299   10   10    7    7
 -0.6146578722281708   10   10    8    8
 -0.6146578722281708   10   10    9    9
 0.03869531789112546   10   10   10    2
 0.01143157087234554   10   10   10    4
 -0.5161448496729284   10   10   10   10
 23.57243939552727  0  0  0  0
