 &FCI NORB=  10,NELEC=14,MS2=0,
  ORBSYM=1,1,1,1,1,1,1,1,1,1,
  ISYM=1,
 &END
 -1.913785543218648    1    1    1    1
 1.845525805785888    2    1    2    1
 -1.914705607860627    2    2    1    1
 -1.915623057187483    2    2    2    2
 -0.1440506551195302    3    1    1    1
 -0.1438311851882325    3    1    2    2
 0.02893679504751733    3    1    3    1
 -0.1923251785302638    3    2    2    1
 0.02875302418749568    3    2    3    2
 -2.048775719633636    3    3    1    1
 -2.048511225071765    3    3    2    2
 0.04391779184656148    3    3    3    1
 -0.687655651968446    3    3    3    3
 0.1902200246358497    4    1    2    1
 -0.02638325170204535    4    1    3    2
 0.02975510686224485    4    1    4    1
 0.1485328733240302    4    2    1    1
 0.148401911623021    4    2    2    2
 -0.02628069518817842    4    2    3    1
 -0.03090861336611199    4    2    3    3
 0.02984760567422006    4    2    4    2
 -0.1949796972251655    4    3    2    1
 0.008071695101206089    4    3    3    2
 -0.005405639093776761    4    3    4    1
 0.07122740801104463    4    3    4    3
 -2.024932930877252    4    4    1    1
 -2.02488968541751    4    4    2    2
 0.03189482265616381    4    4    3    1
 -0.7779612701411924    4    4    3    3
 -0.04099688655406589    4    4    4    2
 -0.6335771973199464    4    4    4    4
 -0.06017130255532244    5    1    1    1
 -0.06021693529723857    5    1    2    2
 0.00704215809169355    5    1    3    1
 -0.0005525070801744546    5    1    3    3
 -0.0149403631422314    5    1    4    2
 0.02566058844671837    5    1    4    4
 0.01393652571968318    5    1    5    1
 -0.06989116144759619    5    2    2    1
 0.007337081953130552    5    2    3    2
 -0.01465852597621899    5    2    4    1
 -0.0005616382870084014    5    2    4    3
 0.01320582401625954    5    2    5    2
 -0.009160213448172798    5    3    1    1
 -0.009268198058642527    5    3    2    2
 -0.006721990634640602    5    3    3    1
 -0.06042493464821978    5    3    3    3
 -0.004051711526886703    5    3    4    2
 0.05098503565170286    5    3    4    4
 0.01242714150039608    5    3    5    1
 0.05803716608203023    5    3    5    3
 -0.2471543014765181    5    4    2    1
 0.01205269169073486    5    4    3    2
 0.001370120213870386    5    4    4    1
 0.101651598060797    5    4    4    3
 -0.01407340770235165    5    4    5    2
 0.2096750787214083    5    4    5    4
 -2.011706245029713    5    5    1    1
 -2.011645755330799    5    5    2    2
 0.03537977544221232    5    5    3    1
 -0.7487904502997709    5    5    3    3
 -0.04276959325075168    5    5    4    2
 -0.6230313919490633    5    5    4    4
 0.02470947618394888    5    5    5    1
 0.03299156458626579    5    5    5    3
 -0.5935836724888205    5    5    5    5
 0.00981615981832307    6    1    6    1
 0.00946595631569108    6    2    6    2
 0.01583001429437894    6    3    6    1
 0.09861854616438161    6    3    6    3
 -0.01189891619951423    6    4    6    2
 0.05410943754989868    6    4    6    4
 0.004726988701309395    6    5    6    1
 0.01224229241307967    6    5    6    3
 0.02760971657998648    6    5    6    5
 -2.023883169008189    6    6    1    1
 -2.023691870945967    6    6    2    2
 0.04133768993065406    6    6    3    1
 -0.6995947573241481    6    6    3    3
 -0.03960811662630886    6    6    4    2
 -0.6757916219273341    6    6    4    4
 0.01403343569011175    6    6    5    1
 0.001533553697539054    6    6    5    3
 -0.6697936214938531    6    6    5    5
 -0.6190094656651979    6    6    6    6
 0.009816159818323062    7    1    7    1
 0.009465956315691073    7    2    7    2
 0.01583001429437893    7    3    7    1
 0.09861854616438154    7    3    7    3
 -0.01189891619951422    7    4    7    2
 0.05410943754989864    7    4    7    4
 0.004726988701309393    7    5    7    1
 0.01224229241307966    7    5    7    3
 0.02760971657998646    7    5    7    5
 0.02286498387963515    7    6    7    6
 -2.023883169008189    7    7    1    1
 -2.023691870945967    7    7    2    2
 0.04133768993065404    7    7    3    1
 -0.6995947573241479    7    7    3    3
 -0.03960811662630888    7    7    4    2
 -0.6757916219273338    7    7    4    4
 0.01403343569011176    7    7    5    1
 0.001533553697539124    7    7    5    3
 -0.669793621493853    7    7    5    5
 -0.6647394334244681    7    7    6    6
 -0.6190094656651975    7    7    7    7
 0.01120671557442811    8    1    6    2
 -0.01380460381962229    8    1    6    4
 0.0003762192844635501    8    1    7    2
 -0.0004634326745270435    8    1    7    4
 0.01329335370080015    8    1    8    1
 0.01165108310827549    8    2    6    1
 0.01788919613762428    8    2    6    3
 0.005837654237837881    8    2    6    5
 0.0003911370928537597    8    2    7    1
 0.0006005560260565965    8    2    7    3
 0.0001959751798570167    8    2    7    5
 0.01386079846748429    8    2    8    2
 0.01183141756453463    8    3    6    2
 -0.0466228662032076    8    3    6    4
 0.0003971910789344585    8    3    7    2
 -0.001565170566355318    8    3    7    4
 0.01358618108426306    8    3    8    1
 0.04731516986014144    8    3    8    3
 -0.01562167943583661    8    4    6    1
 -0.07456018835597436    8    4    6    3
 -0.03489198682496102    8    4    6    5
 -0.0005244334988638566    8    4    7    1
 -0.002503051007804637    8    4    7    3
 -0.00117135464263519    8    4    7    5
 -0.01822272040268171    8    4    8    2
 0.08241298644823873    8    4    8    4
 0.006683416135295826    8    5    6    2
 -0.03755555109009241    8    5    6    4
 0.0002243681495701256    8    5    7    2
 -0.001260772834369886    8    5    7    4
 0.007944947438034233    8    5    8    1
 0.02431749604656387    8    5    8    3
 0.03533483702269988    8    5    8    5
 0.2870748259592423    8    6    2    1
 -0.007815521510925951    8    6    3    2
 0.003420345509232073    8    6    4    1
 -0.1112558411715451    8    6    4    3
 0.002947519582554761    8    6    5    2
 -0.1546768049760833    8    6    5    4
 0.1965498854013826    8    6    8    6
 0.009637354039423443    8    7    2    1
 -0.0002623739213351182    8    7    3    2
 0.0001148240027647056    8    7    4    1
 -0.003734956301867692    8    7    4    3
 9.895082113276933e-05    8    7    5    2
 -0.005192636192534027    8    7    5    4
 0.005952744436682944    8    7    8    6
 0.01943102597961755    8    7    8    7
 -1.976854345936138    8    8    1    1
 -1.97669136529808    8    8    2    2
 0.03793754074021977    8    8    3    1
 -0.7057510879090845    8    8    3    3
 -0.03929408018921371    8    8    4    2
 -0.6433913074688834    8    8    4    4
 0.01686916129370129    8    8    5    1
 0.01877584114430575    8    8    5    3
 -0.6408386102520962    8    8    5    5
 -0.6071659321540205    8    8    6    6
 0.00150409964122982    8    8    7    6
 -0.6519191406522103    8    8    7    7
 -0.580967561666856    8    8    8    8
 -0.0003762192844635492    9    1    6    2
 0.0004634326745270424    9    1    6    4
 0.0112067155744281    9    1    7    2
 -0.01380460381962228    9    1    7    4
 0.01329335370080014    9    1    9    1
 -0.0003911370928537588    9    2    6    1
 -0.0006005560260565952    9    2    6    3
 -0.0001959751798570163    9    2    6    5
 0.01165108310827549    9    2    7    1
 0.01788919613762428    9    2    7    3
 0.005837654237837881    9    2    7    5
 0.01386079846748428    9    2    9    2
 -0.0003971910789344576    9    3    6    2
 0.001565170566355314    9    3    6    4
 0.01183141756453463    9    3    7    2
 -0.04662286620320758    9    3    7    4
 0.01358618108426305    9    3    9    1
 0.04731516986014143    9    3    9    3
 0.0005244334988638553    9    4    6    1
 0.002503051007804631    9    4    6    3
 0.001171354642635187    9    4    6    5
 -0.0156216794358366    9    4    7    1
 -0.07456018835597432    9    4    7    3
 -0.034891986824961    9    4    7    5
 -0.01822272040268169    9    4    9    2
 0.0824129864482387    9    4    9    4
 -0.000224368149570125    9    5    6    2
 0.001260772834369883    9    5    6    4
 0.006683416135295822    9    5    7    2
 -0.03755555109009239    9    5    7    4
 0.007944947438034229    9    5    9    1
 0.02431749604656386    9    5    9    3
 0.03533483702269986    9    5    9    5
 -0.00963735403942342    9    6    2    1
 0.0002623739213351176    9    6    3    2
 -0.0001148240027647056    9    6    4    1
 0.003734956301867682    9    6    4    3
 -9.895082113276919e-05    9    6    5    2
 0.005192636192534014    9    6    5    4
 -0.005952744436682925    9    6    8    6
 0.01903134826179031    9    6    8    7
 0.01943102597961755    9    6    9    6
 0.2870748259592421    9    7    2    1
 -0.00781552151092595    9    7    3    2
 0.003420345509232079    9    7    4    1
 -0.111255841171545    9    7    4    3
 0.002947519582554761    9    7    5    2
 -0.1546768049760832    9    7    5    4
 0.1580875111599742    9    7    8    6
 0.005952744436682937    9    7    8    7
 -0.005952744436682924    9    7    9    6
 0.1965498854013824    9    7    9    7
 -0.001504099641229827    9    8    6    6
 0.02237660424909499    9    8    7    6
 0.00150409964122982    9    8    7    7
 0.02445349188644373    9    8    9    8
 -1.976854345936138    9    9    1    1
 -1.97669136529808    9    9    2    2
 0.03793754074021977    9    9    3    1
 -0.7057510879090845    9    9    3    3
 -0.03929408018921371    9    9    4    2
 -0.6433913074688834    9    9    4    4
 0.01686916129370128    9    9    5    1
 0.01877584114430581    9    9    5    3
 -0.6408386102520963    9    9    5    5
 -0.6519191406522106    9    9    6    6
 -0.001504099641229826    9    9    7    6
 -0.6071659321540203    9    9    7    7
 -0.6298745454397437    9    9    8    8
 -0.5809675616668563    9    9    9    9
 0.1397177553438431   10    1    2    1
 -0.02461943164917796   10    1    3    2
 0.01474613533999228   10    1    4    1
 -0.008173945316474786   10    1    4    3
 0.004959341253854669   10    1    5    2
 -0.02483248316369162   10    1    5    4
 0.009167741290411379   10    1    8    6
 0.0003077691269595306   10    1    8    7
 -0.0003077691269595298   10    1    9    6
 0.009167741290411372   10    1    9    7
 0.03237132308573918   10    1   10    1
 0.09961529346110717   10    2    1    1
 0.09932404099938835   10    2    2    2
 -0.02491770097100256   10    2    3    1
 -0.04362364076708834   10    2    3    3
 0.01434747218050266   10    2    4    2
 -0.009134573993783861   10    2    4    4
 0.00583442299791969   10    2    5    1
 0.01718812280183221   10    2    5    3
 -0.01289525950408739   10    2    5    5
 -0.02939937888238049   10    2    6    6
 -0.02939937888238049   10    2    7    7
 -0.02399975259669099   10    2    8    8
 -0.02399975259669099   10    2    9    9
 0.03327166026794239   10    2   10    2
 -0.2149433708947521   10    3    2    1
 0.003713370010350111   10    3    3    2
 -0.01096741018074407   10    3    4    1
 0.0631576764053544   10    3    4    3
 0.01180500111982116   10    3    5    2
 0.04481758261151808   10    3    5    4
 -0.09962770646952597   10    3    8    6
 -0.003344589607167077   10    3    8    7
 0.003344589607167069   10    3    9    6
 -0.0996277064695259   10    3    9    7
 0.007823175309336872   10    3   10    1
 0.1048545301810491   10    3   10    3
 0.01694758284309238   10    4    1    1
 0.01705019634088704   10    4    2    2
 0.002363140288848724   10    4    3    1
 0.0392495625874349   10    4    3    3
 0.007419771551357515   10    4    4    2
 -0.05393689399179958   10    4    4    4
 -0.01293341854055332   10    4    5    1
 -0.03737260030223948   10    4    5    3
 -0.06111512679805793   10    4    5    5
 0.005277727244514752   10    4    6    6
 0.005277727244514724   10    4    7    7
 -0.006587795361025758   10    4    8    8
 -0.006587795361025776   10    4    9    9
 -0.01425376476255239   10    4   10    2
 0.05131942513679241   10    4   10    4
 0.2095394423531219   10    5    2    1
 -0.006062526743727719   10    5    3    2
 0.002153123059320402   10    5    4    1
 -0.06987433994643941   10    5    4    3
 0.002930326276615737   10    5    5    2
 -0.127761103513502   10    5    5    4
 0.1048274444817614   10    5    8    6
 0.003519149379061792   10    5    8    7
 -0.003519149379061784   10    5    9    6
 0.1048274444817613   10    5    9    7
 0.008704212068538197   10    5   10    1
 -0.06210623220808124   10    5   10    3
 0.1041225698832285   10    5   10    5
 -0.007985534441582906   10    6    6    2
 0.02278239868646815   10    6    6    4
 -0.008978651709078205   10    6    8    1
 -0.03263752753295888   10    6    8    3
 -0.0009888379101107014   10    6    8    5
 0.0003014212236406478   10    6    9    1
 0.001095670464157005   10    6    9    3
 3.319615711860918e-05   10    6    9    5
 0.03354914825241148   10    6   10    6
 -0.007985534441582901   10    7    7    2
 0.02278239868646813   10    7    7    4
 -0.0003014212236406485   10    7    8    1
 -0.001095670464157007   10    7    8    3
 -3.319615711860925e-05   10    7    8    5
 -0.008978651709078198   10    7    9    1
 -0.03263752753295886   10    7    9    3
 -0.0009888379101107043   10    7    9    5
 0.03354914825241146   10    7   10    7
 -0.009960357325547594   10    8    6    1
 -0.05575007424327168   10    8    6    3
 0.003985147248041846   10    8    6    5
 -0.0003343779433975707   10    8    7    1
 -0.001871578956501162   10    8    7    3
 0.000133784893190412   10    8    7    5
 -0.01123507414652236   10    8    8    2
 0.03315626285726352   10    8    8    4
 0.04346967942331935   10    8   10    8
 0.0003343779433975699   10    9    6    1
 0.001871578956501157   10    9    6    3
 -0.0001337848931904116   10    9    6    5
 -0.009960357325547588   10    9    7    1
 -0.05575007424327165   10    9    7    3
 0.003985147248041845   10    9    7    5
 -0.01123507414652235   10    9    9    2
 0.03315626285726349   10    9    9    4
 0.04346967942331932   10    9   10    9
 -1.869785257036119   10   10    1    1
 -1.869542076270235   10   10    2    2
 0.03833133410076503   10   10    3    1
 -0.6312588409724126   10   10    3    3
 -0.0276700550885693   10   10    4    2
 -0.6655256975601379   10   10    4    4
 0.0002403181931042615   10   10    5    1
 -0.0413420991262978   10   10    5    3
 -0.630138625231851   10   10    5    5
 -0.6238909160910878   10   10    6    6
 -0.6238909160910877   10   10    7    7
 -0.6121205084448644   10   10    8    8
 -0.6121205084448647   10   10    9    9
 -0.03834406613166681   10   10   10    2
 0.0148024561966371   10   10   10    4
 -0.5197827533625297   10   10   10   10
 21.6080694459  0  0  0  0
